ITEM: TIMESTEP
80000
ITEM: NUMBER OF ATOMS
17760
ITEM: BOX BOUNDS pp pp pp
-3.3064560791979575e-01 2.7670645607919639e+01
-4.0570839426281289e+00 3.3213708394262989e+02
-3.3935570972519291e-01 2.7679355709724629e+01
ITEM: ATOMS id type q x y z
1 2 2.2208 5.37971 1.53509 5.22368
2 1 -1.1104 1.24173 -2.65511 1.05153
3 1 -1.1104 1.11192 3.02898 1.16999
6 1 -1.1104 1.25361 -2.68257 3.77336
7 1 -1.1104 1.13987 2.91929 3.99429
10 1 -1.1104 1.19463 0.254348 1.10861
12 2 2.2208 5.42599 -1.23017 2.47211
13 2 2.2208 5.33961 4.42928 2.46749
14 1 -1.1104 1.27167 0.0973812 3.86318
16 1 -1.1104 4.04582 -2.78854 1.036
17 1 -1.1104 3.94526 2.94119 1.10791
18 2 2.2208 2.59729 1.5472 2.52653
19 1 -1.1104 4.0894 -2.71235 3.78392
20 1 -1.1104 3.98444 3.00459 3.82605
21 2 2.2208 2.69267 -1.32617 5.22343
22 2 2.2208 2.5348 4.40378 5.17042
23 1 -1.1104 3.95141 0.122801 1.0879
24 1 -1.1104 3.97806 0.214995 3.8956
15 1 -1.1104 6.7442 0.0886383 3.85143
5 1 -1.1104 6.80687 2.87547 1.08931
173 1 -1.1104 4.02163 2.97809 6.62534
8 1 -1.1104 6.87967 -2.74768 3.76324
174 1 -1.1104 4.05789 0.166059 6.62632
168 1 -1.1104 6.84262 -2.6461 6.64298
28 2 2.2208 13.8863 21.0212 10.8767
171 1 -1.1104 6.81987 0.14524 6.64367
167 1 -1.1104 1.18471 2.85684 6.76246
27 2 2.2208 -0.33453 4.26418 2.43575
4 1 -1.1104 6.77997 -2.69559 1.10072
11 1 -1.1104 6.89143 0.081849 1.09311
9 1 -1.1104 6.75909 2.99742 3.91226
169 1 -1.1104 6.83377 2.89221 6.70645
31 2 2.2208 11.024 1.44858 5.22772
32 1 -1.1104 12.3549 -2.71953 0.938094
33 1 -1.1104 12.3542 2.96922 0.991253
34 1 -1.1104 12.3803 -2.60194 3.86229
35 1 -1.1104 12.4359 2.87564 3.84485
36 1 -1.1104 12.4668 0.216348 0.973146
37 2 2.2208 11.0468 -1.29708 2.42543
38 2 2.2208 10.9796 4.30275 2.46375
39 1 -1.1104 12.3262 0.150771 3.81649
40 1 -1.1104 9.59282 -2.6907 1.02902
41 1 -1.1104 9.5551 2.86254 1.00776
42 2 2.2208 8.18186 1.5162 2.48271
43 1 -1.1104 9.65 -2.69683 3.75562
44 1 -1.1104 9.56799 2.94288 3.85753
45 2 2.2208 8.23281 -1.24709 5.31169
46 2 2.2208 8.23592 4.26813 5.21063
47 1 -1.1104 9.7013 0.00687013 1.12438
48 1 -1.1104 9.61202 0.182552 3.86532
208 1 -1.1104 9.58407 -2.81071 6.5329
205 1 -1.1104 12.4598 -2.72901 6.58783
210 1 -1.1104 9.58829 0.0733947 6.72164
54 2 2.2208 5.37893 7.11824 5.14645
55 2 2.2208 5.33459 12.7333 5.30179
56 1 -1.1104 1.01878 8.56304 1.11792
58 1 -1.1104 1.13284 8.51502 3.85716
60 1 -1.1104 1.18583 5.80869 0.996765
61 1 -1.1104 1.11616 11.3443 1.01484
66 2 2.2208 5.40234 9.94133 2.42215
67 1 -1.1104 1.15825 5.7377 3.85694
68 1 -1.1104 1.07965 11.3055 3.78173
71 1 -1.1104 4.00215 8.52379 0.997084
72 2 2.2208 2.49999 7.19569 2.39542
73 2 2.2208 2.55763 12.7237 2.42517
74 1 -1.1104 3.85512 8.48591 3.78203
75 2 2.2208 2.53506 9.83988 5.22443
76 1 -1.1104 3.92999 5.72365 1.08534
77 1 -1.1104 3.98602 11.3024 0.989711
79 1 -1.1104 3.94344 5.82331 3.71366
80 1 -1.1104 3.92583 11.2811 3.93622
57 1 -1.1104 6.70216 8.48859 1.06596
78 1 -1.1104 3.99625 11.2769 6.72839
237 1 -1.1104 6.87439 5.63493 6.55061
69 1 -1.1104 6.76357 5.78851 3.7892
59 1 -1.1104 6.68736 8.55996 3.97254
82 2 2.2208 -0.333507 9.95538 2.45217
81 2 2.2208 -0.230918 7.1981 5.29568
83 2 2.2208 -0.285464 12.7752 5.18301
334 2 2.2208 -0.17142 -1.18402 13.6805
70 1 -1.1104 6.7482 11.4034 3.91986
63 1 -1.1104 6.80186 5.68699 0.976148
64 1 -1.1104 6.73549 11.3391 1.07746
84 2 2.2208 10.9904 7.18909 5.24243
85 2 2.2208 10.9803 12.6971 5.27186
86 1 -1.1104 12.2484 8.61672 1.00552
87 1 -1.1104 12.4091 8.55951 3.82818
88 1 -1.1104 12.3186 5.76258 1.15641
89 1 -1.1104 12.3153 11.3079 1.11464
91 2 2.2208 10.9024 9.89807 2.40345
92 1 -1.1104 12.4329 5.78573 3.86093
93 1 -1.1104 12.3525 11.3062 3.95687
94 1 -1.1104 9.43783 8.5381 1.02007
95 2 2.2208 8.1439 7.09923 2.45973
96 2 2.2208 8.17249 12.6939 2.46961
97 1 -1.1104 9.57784 8.48845 3.76359
98 2 2.2208 8.09959 9.915 5.26868
99 1 -1.1104 9.51156 5.63589 1.03248
100 1 -1.1104 9.51115 11.3254 0.970946
102 1 -1.1104 9.67417 5.66063 3.86919
103 1 -1.1104 9.57734 11.3031 3.7961
266 1 -1.1104 12.3798 5.85875 6.63585
269 1 -1.1104 9.62691 5.80809 6.67954
267 1 -1.1104 9.60964 8.6202 6.55753
90 1 -1.1104 12.3627 11.4261 6.74081
9026 2 2.2208 11.0756 -4.18837 5.18678
265 1 -1.1104 12.3559 8.69516 6.52418
101 1 -1.1104 9.54131 11.3456 6.68418
384 2 2.2208 10.9747 7.14928 -0.41857
9022 2 2.2208 2.69752 -4.13345 2.38823
106 2 2.2208 5.32006 18.2782 5.28492
107 1 -1.1104 1.12079 14.1259 1.15083
109 1 -1.1104 1.21408 19.6943 1.02381
113 1 -1.1104 1.15246 14.1034 3.78089
114 1 -1.1104 1.07404 19.7703 3.89017
116 1 -1.1104 1.18305 16.933 1.0208
119 2 2.2208 5.46822 15.4921 2.42831
120 2 2.2208 5.32549 21.0554 2.45277
121 1 -1.1104 1.12155 16.9497 3.81548
123 1 -1.1104 3.91728 14.0719 0.988266
125 1 -1.1104 3.89597 19.6557 0.955329
127 2 2.2208 2.58784 18.2177 2.4552
128 1 -1.1104 4.04776 14.074 3.78299
129 1 -1.1104 3.88358 19.6668 3.80635
130 2 2.2208 2.48991 15.481 5.19541
131 2 2.2208 2.52432 21.122 5.19769
132 1 -1.1104 3.89757 16.8458 1.04908
134 1 -1.1104 3.87783 16.8322 3.78226
124 1 -1.1104 3.92817 14.0572 6.57038
122 1 -1.1104 6.79673 16.9732 3.83391
302 1 -1.1104 1.16846 19.7385 6.61879
137 2 2.2208 -0.288927 18.2777 5.13878
108 1 -1.1104 1.15641 14.1869 6.67217
138 1 -1.1104 6.67969 19.6924 1.00071
140 1 -1.1104 6.68435 16.914 1.10352
139 1 -1.1104 6.7414 19.7321 3.85225
110 1 -1.1104 6.72476 14.1295 0.936648
115 1 -1.1104 6.80989 14.1766 3.8852
118 1 -1.1104 6.76111 16.9351 6.71798
141 2 2.2208 10.9698 18.3687 5.25735
142 1 -1.1104 12.3002 14.1476 1.02602
144 1 -1.1104 12.3328 19.6714 1.00903
146 1 -1.1104 12.3184 14.0992 3.86252
147 1 -1.1104 12.3178 19.737 3.83442
148 1 -1.1104 12.3526 16.898 1.02018
150 2 2.2208 10.9006 15.5631 2.42927
151 2 2.2208 10.9096 21.1635 2.40818
152 1 -1.1104 12.3323 16.942 3.84528
153 1 -1.1104 9.47449 14.1899 1.1815
155 1 -1.1104 9.55806 19.7366 1.05884
157 2 2.2208 8.11354 18.361 2.406
158 1 -1.1104 9.54125 14.0831 3.88529
159 1 -1.1104 9.52991 19.7731 3.81449
160 2 2.2208 8.24119 15.5933 5.23509
161 2 2.2208 8.20321 21.0779 5.21007
162 1 -1.1104 9.47172 16.9555 1.04613
164 1 -1.1104 9.51461 16.9958 3.79356
154 1 -1.1104 9.59713 14.1467 6.62443
156 1 -1.1104 9.49158 19.7191 6.6798
135 2 2.2208 -0.243599 15.5362 2.37933
145 1 -1.1104 12.3153 19.7287 6.57046
111 1 -1.1104 6.74369 14.1734 6.65332
347 2 2.2208 8.08707 15.5404 -0.425823
172 1 -1.1104 4.07955 -2.65654 6.55714
170 1 -1.1104 1.17872 0.115906 6.58029
9030 2 2.2208 -0.0903954 -4.05678 10.8904
166 1 -1.1104 1.27298 -2.63908 6.65043
288 1 -1.1104 6.78039 19.6781 9.4532
175 2 2.2208 5.47106 1.54664 10.841
176 1 -1.1104 1.30952 -2.64898 12.2367
177 1 -1.1104 1.26672 2.97506 12.2474
180 1 -1.1104 1.18151 -2.76274 9.45717
181 1 -1.1104 1.23087 2.96668 9.44935
184 1 -1.1104 1.13161 0.120233 12.1911
186 2 2.2208 5.55681 -1.2721 8.07061
187 2 2.2208 5.38233 4.27331 8.0048
188 1 -1.1104 1.29436 0.0882827 9.45128
190 1 -1.1104 4.02573 -2.61055 12.2554
191 1 -1.1104 4.01272 2.9534 12.1999
192 2 2.2208 2.55378 1.4909 7.99324
193 1 -1.1104 4.07583 -2.67039 9.46797
194 1 -1.1104 3.99613 2.88682 9.48766
195 2 2.2208 2.57909 -1.29722 10.8381
196 2 2.2208 2.6434 4.42162 10.8138
197 1 -1.1104 4.13051 0.0620029 12.1578
198 1 -1.1104 4.02105 0.128701 9.3907
9029 2 2.2208 5.46057 -4.08875 10.8446
182 1 -1.1104 6.91439 -2.68048 9.49058
26 2 2.2208 -0.174934 1.50182 5.24721
199 2 2.2208 -0.188327 4.37757 8.06205
201 2 2.2208 -0.193376 1.53782 10.8214
183 1 -1.1104 6.84776 2.98371 9.38165
338 2 2.2208 5.42879 -1.24792 13.6322
200 2 2.2208 -0.139 -1.35792 8.12511
209 1 -1.1104 9.67795 2.9728 6.60857
207 1 -1.1104 12.3847 0.101562 6.61148
381 2 2.2208 5.33435 12.738 -0.389176
185 1 -1.1104 6.85887 0.11354 12.2753
178 1 -1.1104 6.89271 -2.6746 12.2382
206 1 -1.1104 12.4417 2.93006 6.61068
189 1 -1.1104 6.89008 0.0907836 9.41461
179 1 -1.1104 6.89758 2.91579 12.1514
25 2 2.2208 -0.213751 -1.30022 2.45013
211 2 2.2208 11.059 1.58967 10.7671
212 1 -1.1104 12.3772 -2.64005 12.3195
213 1 -1.1104 12.3032 2.97616 12.3093
214 1 -1.1104 12.516 -2.52017 9.39915
215 1 -1.1104 12.4887 3.00692 9.43095
216 1 -1.1104 12.4754 0.103817 12.0639
217 2 2.2208 11.1524 -1.23971 8.03432
218 2 2.2208 11.0412 4.41124 8.00811
219 1 -1.1104 12.5166 0.138961 9.35788
220 1 -1.1104 9.62344 -2.71578 12.225
221 1 -1.1104 9.61401 2.93717 12.1624
222 2 2.2208 8.27259 1.54328 8.04233
223 1 -1.1104 9.77356 -2.62293 9.36898
224 1 -1.1104 9.68604 2.97521 9.37855
225 2 2.2208 8.22689 -1.29491 10.9476
226 2 2.2208 8.25534 4.35673 10.7592
227 1 -1.1104 9.70682 0.105147 12.3126
228 1 -1.1104 9.67095 0.213685 9.4884
350 2 2.2208 11.052 4.38078 13.7279
346 2 2.2208 11.074 -1.18241 13.6407
297 1 -1.1104 6.88141 14.1434 12.3533
337 2 2.2208 -0.133959 4.29059 13.6844
367 2 2.2208 -0.171916 9.89577 13.66
234 1 -1.1104 1.078 8.57886 6.68939
65 1 -1.1104 6.71211 11.2943 6.60746
238 1 -1.1104 3.8651 8.48226 6.49543
29 2 2.2208 -0.096066 7.22752 10.8158
30 2 2.2208 -0.197697 10.0332 7.99453
239 1 -1.1104 4.07944 5.71343 6.5424
62 1 -1.1104 1.2299 11.3086 6.55049
236 1 -1.1104 1.17146 5.76405 6.54376
240 2 2.2208 5.50406 7.1131 10.8209
241 2 2.2208 5.39266 12.7327 10.8134
242 1 -1.1104 1.33501 8.63333 12.1304
244 1 -1.1104 1.21368 8.58569 9.37696
246 1 -1.1104 1.3003 5.88 12.1666
247 1 -1.1104 1.17044 11.3918 12.3012
250 2 2.2208 5.37869 9.93714 7.91699
251 1 -1.1104 1.27037 5.73142 9.36771
252 1 -1.1104 1.10007 11.4072 9.46475
255 1 -1.1104 4.05536 8.54058 12.1025
256 2 2.2208 2.62253 7.16627 7.958
257 2 2.2208 2.53773 12.781 8.01355
258 1 -1.1104 4.04043 8.52304 9.36714
259 2 2.2208 2.63731 10.0025 10.7558
260 1 -1.1104 4.20582 5.68616 12.3141
261 1 -1.1104 3.95045 11.3989 12.2825
262 1 -1.1104 4.13111 5.67789 9.43911
263 1 -1.1104 4.03039 11.3628 9.48389
51 2 2.2208 -0.236336 12.6807 10.8816
353 2 2.2208 2.55477 12.7223 13.741
351 2 2.2208 2.6785 7.17382 13.6846
235 1 -1.1104 6.74648 8.47755 6.73132
253 1 -1.1104 6.84547 5.76661 9.36338
243 1 -1.1104 6.79041 8.60365 12.2298
254 1 -1.1104 6.82111 11.3309 9.48425
289 1 -1.1104 6.70438 16.8719 9.49695
245 1 -1.1104 6.89183 8.43035 9.40711
248 1 -1.1104 6.80463 5.72512 12.1867
249 1 -1.1104 6.8547 11.407 12.2834
264 1 -1.1104 9.49904 11.3206 9.50402
268 1 -1.1104 9.64701 5.69985 9.37929
270 1 -1.1104 9.6297 11.3206 12.3248
271 1 -1.1104 9.56321 5.81059 12.1904
272 2 2.2208 8.28851 9.87908 10.8429
273 1 -1.1104 9.66111 8.61033 9.45554
274 2 2.2208 8.15895 12.7456 8.00928
275 2 2.2208 8.23322 7.17292 8.03252
276 2 2.2208 11.0973 7.03496 10.9007
277 2 2.2208 10.9166 12.6684 10.8893
278 1 -1.1104 12.3796 8.44303 12.2455
279 1 -1.1104 12.4872 8.57244 9.40497
280 1 -1.1104 12.4567 5.68105 12.3661
281 1 -1.1104 12.4555 11.2466 12.3336
282 2 2.2208 11.0404 9.98718 8.00919
283 1 -1.1104 12.4378 5.76883 9.42491
284 1 -1.1104 12.3201 11.4131 9.55583
285 1 -1.1104 9.6312 8.52253 12.3271
354 2 2.2208 8.19888 7.16118 13.6322
356 2 2.2208 8.14465 12.7216 13.6679
311 2 2.2208 -0.210506 21.0507 7.99199
335 2 2.2208 -0.195966 21.1288 13.665
117 1 -1.1104 1.11107 16.9518 6.59953
126 1 -1.1104 3.96322 19.6547 6.63019
133 1 -1.1104 3.91748 16.8302 6.7263
312 2 2.2208 -0.244968 18.3244 10.8838
305 1 -1.1104 3.98456 14.1472 9.4754
300 2 2.2208 5.35399 18.3126 10.9086
301 1 -1.1104 4.04255 19.7272 9.47803
304 1 -1.1104 3.94496 16.8861 9.38437
303 2 2.2208 2.63233 18.2955 8.04741
298 1 -1.1104 1.15821 19.648 12.3153
310 2 2.2208 2.46474 15.5218 10.8974
295 2 2.2208 5.37677 15.5075 8.10836
309 2 2.2208 2.62638 21.1323 10.8372
308 1 -1.1104 4.0151 16.8664 12.2782
307 1 -1.1104 1.04547 16.8229 12.2081
299 1 -1.1104 1.16444 14.1155 12.3365
286 1 -1.1104 3.93789 19.6347 12.1482
287 1 -1.1104 3.99188 14.1079 12.2767
291 1 -1.1104 1.1802 19.7449 9.52995
292 1 -1.1104 1.23615 16.9281 9.41592
293 2 2.2208 5.42296 21.0473 8.10196
294 1 -1.1104 1.11005 14.1492 9.50114
9045 2 2.2208 8.27282 -4.09338 13.6264
313 2 2.2208 -0.196037 15.5789 8.00975
136 2 2.2208 -0.271913 21.1148 2.41607
342 2 2.2208 -0.225542 15.4522 13.6833
112 1 -1.1104 6.7509 19.6797 6.61089
317 2 2.2208 8.16069 15.4976 10.8435
143 1 -1.1104 12.3647 14.2446 6.66136
149 1 -1.1104 12.2848 16.9444 6.6027
163 1 -1.1104 9.54776 16.9918 6.64885
331 2 2.2208 11.02 18.3927 10.8008
329 1 -1.1104 12.3625 19.8119 12.1737
318 1 -1.1104 9.6178 19.7718 9.3391
330 1 -1.1104 12.466 14.0903 12.2727
320 2 2.2208 8.11787 18.3187 8.07716
328 1 -1.1104 12.2868 14.1792 9.51107
324 2 2.2208 10.9274 21.2187 8.05921
325 2 2.2208 11.0395 15.5036 8.0058
326 1 -1.1104 12.3561 16.9617 12.29
321 1 -1.1104 9.57723 19.739 12.2081
323 1 -1.1104 12.3501 16.9152 9.52743
315 1 -1.1104 9.59561 17.0219 12.1835
327 1 -1.1104 12.405 19.744 9.39261
306 1 -1.1104 6.80539 16.9397 12.3039
319 1 -1.1104 9.52351 14.1439 9.34346
290 1 -1.1104 6.76193 14.0844 9.47367
314 1 -1.1104 9.53121 16.9919 9.51248
352 2 2.2208 5.41076 9.93877 13.5757
355 2 2.2208 11.0144 9.97104 13.7124
322 1 -1.1104 9.63663 14.1096 12.1282
316 2 2.2208 8.19397 21.1201 10.7462
296 1 -1.1104 6.77621 19.7575 12.2912
357 2 2.2208 2.55921 18.3688 13.6843
348 2 2.2208 10.9473 18.2994 -0.304058
343 2 2.2208 8.18001 1.50477 13.698
385 2 2.2208 8.05307 9.88914 -0.412141
374 2 2.2208 5.38395 18.2649 -0.409075
341 2 2.2208 5.40369 4.32371 13.6292
388 2 2.2208 5.44411 1.57366 16.5085
389 1 -1.1104 1.24206 -2.5529 17.894
390 1 -1.1104 1.23545 3.07088 17.8835
393 1 -1.1104 1.22057 -2.62067 14.9483
395 1 -1.1104 1.24206 2.8151 15.0288
401 1 -1.1104 1.23416 0.237044 17.824
403 2 2.2208 5.39316 -1.26828 19.3256
404 2 2.2208 5.43921 4.30069 19.2911
405 1 -1.1104 1.2367 0.18245 15.0582
409 1 -1.1104 4.0325 -2.58196 17.844
410 1 -1.1104 3.98955 2.94909 17.8352
411 2 2.2208 2.60712 1.56754 19.2541
412 1 -1.1104 3.99854 -2.60029 15.1085
414 1 -1.1104 4.08861 2.93925 15.0604
416 2 2.2208 2.64933 -1.20224 16.4174
417 2 2.2208 2.62929 4.32234 16.485
418 1 -1.1104 3.95349 0.208265 17.8785
419 1 -1.1104 4.08922 0.194657 14.919
415 1 -1.1104 3.95214 2.89262 20.5915
406 1 -1.1104 1.20123 0.108996 20.5443
397 1 -1.1104 6.76292 -2.59437 15.1247
391 1 -1.1104 6.86958 -2.73378 17.9875
9118 2 2.2208 8.06776 -4.07379 24.8542
424 2 2.2208 -0.192355 1.59411 16.4865
427 2 2.2208 -0.208622 4.32584 19.2558
425 2 2.2208 -0.200535 -1.23877 19.2313
382 2 2.2208 -0.32735 12.7181 27.7051
399 1 -1.1104 6.85186 3.02612 14.9725
400 1 -1.1104 6.73767 3.02277 20.732
408 1 -1.1104 6.73403 0.239837 20.7121
392 1 -1.1104 6.81548 2.87495 17.8851
407 1 -1.1104 6.78875 0.121811 15.1027
402 1 -1.1104 6.73393 0.0799125 17.978
431 2 2.2208 11.0223 1.54643 16.3575
432 1 -1.1104 12.436 -2.60996 17.774
433 1 -1.1104 12.4059 3.06716 17.7293
434 1 -1.1104 12.402 -2.65844 15.1062
436 1 -1.1104 12.4182 2.91797 15.111
438 1 -1.1104 12.4137 0.131002 17.845
439 2 2.2208 10.9967 -1.23962 19.179
440 2 2.2208 10.9641 4.38308 19.2542
441 1 -1.1104 12.3696 0.154376 15.0008
443 1 -1.1104 9.58364 -2.72506 17.7625
444 1 -1.1104 9.59468 2.80425 17.9209
445 2 2.2208 8.17555 1.54712 19.3078
446 1 -1.1104 9.56183 -2.68821 14.9504
448 1 -1.1104 9.62685 2.95406 14.9862
450 2 2.2208 8.17286 -1.29684 16.4388
451 2 2.2208 8.29267 4.39929 16.3913
452 1 -1.1104 9.6391 0.0762035 17.7004
453 1 -1.1104 9.55595 0.13983 15.0569
447 1 -1.1104 9.67579 -2.66306 20.6149
449 1 -1.1104 9.55766 3.00654 20.6335
435 1 -1.1104 12.4009 -2.71641 20.5912
437 1 -1.1104 12.4928 2.97371 20.684
442 1 -1.1104 12.3068 0.112849 20.6173
684 2 2.2208 -0.270726 9.89297 24.8851
454 1 -1.1104 9.57087 0.14319 20.7313
464 2 2.2208 5.57094 7.07549 16.4788
465 2 2.2208 5.27464 12.6975 16.4916
466 1 -1.1104 1.24928 8.56485 17.7054
468 1 -1.1104 1.27698 8.46309 14.977
472 1 -1.1104 1.28015 5.84328 17.7749
473 1 -1.1104 1.22218 11.425 17.8347
476 2 2.2208 5.46875 9.88191 19.2394
477 1 -1.1104 1.30975 5.68467 14.913
479 1 -1.1104 1.18148 11.2841 15.1188
485 1 -1.1104 4.14266 8.52874 17.8625
486 2 2.2208 2.67441 7.1691 19.2494
487 2 2.2208 2.55742 12.6249 19.2971
488 1 -1.1104 4.12638 8.63328 14.9932
490 2 2.2208 2.6648 9.86899 16.4417
491 1 -1.1104 4.10326 5.80145 17.9115
492 1 -1.1104 3.99526 11.2295 17.8199
493 1 -1.1104 4.05309 5.83744 15.1016
495 1 -1.1104 3.99556 11.3484 14.9528
494 1 -1.1104 3.90954 5.69053 20.7249
489 1 -1.1104 3.99043 8.47467 20.6194
475 1 -1.1104 6.82943 11.3009 17.8612
478 1 -1.1104 1.17715 5.58883 20.568
481 1 -1.1104 6.88949 5.68207 15.0391
480 1 -1.1104 1.05653 11.2231 20.637
9122 2 2.2208 5.33724 -4.06447 22.1249
648 2 2.2208 -0.240486 12.6909 16.4877
474 1 -1.1104 6.83763 5.6053 17.8043
483 1 -1.1104 6.8009 11.2589 15.1771
482 1 -1.1104 6.77709 5.73851 20.6019
470 1 -1.1104 6.94789 8.48569 15.0684
471 1 -1.1104 6.81634 8.5888 20.6633
467 1 -1.1104 6.83732 8.46854 17.8253
500 2 2.2208 11.0241 7.19473 16.4647
501 2 2.2208 11.0005 12.7861 16.3983
502 1 -1.1104 12.4891 8.49431 17.867
503 1 -1.1104 12.4612 8.55696 15.0572
505 1 -1.1104 12.3693 5.83113 17.9278
506 1 -1.1104 12.3904 11.3249 17.9473
507 2 2.2208 11.0221 9.97861 19.1791
508 1 -1.1104 12.4254 5.7 15.1215
510 1 -1.1104 12.4775 11.3322 15.1454
512 1 -1.1104 9.6292 8.50516 17.9059
513 2 2.2208 8.22574 7.15132 19.3288
514 2 2.2208 8.23147 12.6757 19.228
515 1 -1.1104 9.66777 8.60674 15.0806
517 2 2.2208 8.24011 9.94174 16.4245
518 1 -1.1104 9.62305 5.78513 17.7394
519 1 -1.1104 9.69975 11.4256 17.8349
520 1 -1.1104 9.68237 5.79619 14.9363
522 1 -1.1104 9.69126 11.3993 15.0845
523 1 -1.1104 9.61972 11.3977 20.6162
9189 2 2.2208 -0.152079 -3.98581 16.445
509 1 -1.1104 12.2968 5.74521 20.7069
521 1 -1.1104 9.52317 5.83768 20.6844
9188 2 2.2208 5.41634 -4.00326 16.4294
484 1 -1.1104 6.72544 11.3062 20.6182
511 1 -1.1104 12.4458 11.2958 20.7608
527 2 2.2208 5.36853 18.37 16.3877
528 1 -1.1104 1.18494 14.1542 17.8943
529 1 -1.1104 1.16101 19.7371 17.8903
532 1 -1.1104 1.11339 14.1243 15.0534
534 1 -1.1104 1.11479 19.6918 15.1527
540 1 -1.1104 1.12887 16.8548 17.7369
542 2 2.2208 5.34277 15.5216 19.2922
543 2 2.2208 5.38905 21.1547 19.2603
544 1 -1.1104 1.17534 16.922 14.9772
548 1 -1.1104 3.95083 14.0864 17.9917
549 1 -1.1104 4.02231 19.7223 17.8262
550 2 2.2208 2.50671 18.2733 19.2482
551 1 -1.1104 3.94761 14.0796 15.0817
553 1 -1.1104 3.91354 19.8206 14.9442
555 2 2.2208 2.60744 15.5067 16.5079
556 2 2.2208 2.55647 21.1514 16.4983
557 1 -1.1104 4.00199 16.918 17.8585
558 1 -1.1104 3.90094 17.0157 15.1407
546 1 -1.1104 6.90755 16.9231 15.0344
554 1 -1.1104 4.01201 19.767 20.6006
552 1 -1.1104 3.95525 14.0677 20.7764
537 1 -1.1104 6.77771 14.1049 20.6472
535 1 -1.1104 1.17853 19.7375 20.7751
458 2 2.2208 -0.315673 21.1561 19.3431
456 2 2.2208 -0.292697 18.3354 16.4253
457 2 2.2208 -0.307445 15.523 19.1569
358 2 2.2208 5.36554 21.1675 13.6492
536 1 -1.1104 6.70078 14.0761 15.1439
530 1 -1.1104 6.70566 14.1053 17.9036
538 1 -1.1104 6.71661 19.7942 15.0374
541 1 -1.1104 6.71684 16.9029 17.9121
547 1 -1.1104 6.7322 16.9188 20.718
531 1 -1.1104 6.80484 19.699 17.812
579 1 -1.1104 9.58446 14.1085 20.5623
586 1 -1.1104 9.54707 16.8972 20.7355
563 2 2.2208 10.8473 18.2841 16.4938
564 1 -1.1104 12.4624 14.1026 17.8916
565 1 -1.1104 12.1914 19.6724 17.901
566 1 -1.1104 12.3113 14.1258 14.941
568 1 -1.1104 12.2914 19.691 15.1507
570 1 -1.1104 12.2642 16.8208 17.9477
571 2 2.2208 10.8742 15.4276 19.2696
572 2 2.2208 10.9583 21.0704 19.2261
573 1 -1.1104 12.3548 16.9276 15.0353
575 1 -1.1104 9.6105 14.1263 17.7943
576 1 -1.1104 9.4435 19.6342 17.874
577 2 2.2208 8.10117 18.2265 19.3084
578 1 -1.1104 9.49121 14.1224 15.0409
580 1 -1.1104 9.50167 19.7298 15.0929
582 2 2.2208 8.13595 15.509 16.4069
583 2 2.2208 8.18103 21.0418 16.4655
584 1 -1.1104 9.53367 16.7875 17.8599
585 1 -1.1104 9.58961 16.8935 15.0325
567 1 -1.1104 12.344 14.1866 20.6528
574 1 -1.1104 12.3268 16.9079 20.6574
569 1 -1.1104 12.3528 19.8074 20.6978
581 1 -1.1104 9.52246 19.7362 20.7099
413 1 -1.1104 3.9739 -2.64131 20.7309
420 1 -1.1104 3.95603 0.134506 20.7453
394 1 -1.1104 1.24076 -2.69028 20.6971
368 2 2.2208 -0.160746 1.54673 27.7103
9156 2 2.2208 -0.265164 -4.08917 22.0873
396 1 -1.1104 1.15748 2.79129 20.6584
624 2 2.2208 -0.259938 -1.19185 24.8958
591 2 2.2208 5.35632 1.49981 22.1406
592 1 -1.1104 1.19002 -2.68415 23.3724
593 1 -1.1104 1.11028 2.81518 23.3655
596 1 -1.1104 1.1412 -2.62026 26.3082
597 1 -1.1104 1.23962 2.93835 26.2873
600 1 -1.1104 1.17164 0.0459427 23.4778
602 2 2.2208 5.37539 -1.23561 24.9385
603 2 2.2208 5.37775 4.30122 24.9464
604 1 -1.1104 1.19199 0.138592 26.2534
606 1 -1.1104 3.92274 -2.5535 23.5989
607 1 -1.1104 3.95999 2.83144 23.335
608 2 2.2208 2.51865 1.4775 24.8096
609 1 -1.1104 3.99438 -2.65661 26.2899
610 1 -1.1104 4.02338 2.90214 26.3194
611 2 2.2208 2.57168 -1.31565 22.0445
612 2 2.2208 2.64183 4.28941 22.0219
613 1 -1.1104 3.97601 0.169234 23.5773
614 1 -1.1104 4.03903 0.0699279 26.3117
605 1 -1.1104 6.67868 0.173779 26.2444
594 1 -1.1104 6.76739 -2.64431 23.5057
365 2 2.2208 2.54572 -1.18971 27.7472
366 2 2.2208 2.49281 4.3081 27.726
625 2 2.2208 -0.260439 1.5028 22.0063
364 2 2.2208 5.34291 1.50904 27.6397
587 2 2.2208 8.10544 18.3659 24.8673
398 1 -1.1104 6.83527 -2.64868 20.8629
595 1 -1.1104 6.7731 2.8419 23.5345
601 1 -1.1104 6.72862 -0.00609621 23.4207
598 1 -1.1104 6.81869 -2.56528 26.3156
599 1 -1.1104 6.86937 2.94666 26.3155
372 2 2.2208 8.20905 4.28855 27.7349
626 2 2.2208 -0.205599 4.31511 24.7904
370 2 2.2208 8.13398 -1.26495 27.7903
620 1 -1.1104 9.54614 16.9018 26.3146
627 2 2.2208 10.943 1.61797 22.0591
628 1 -1.1104 12.32 -2.68941 23.3729
629 1 -1.1104 12.3187 2.87886 23.4457
630 1 -1.1104 12.2582 -2.66483 26.1852
631 1 -1.1104 12.4432 2.99874 26.2041
632 1 -1.1104 12.384 0.0194746 23.427
633 2 2.2208 10.9598 -1.29099 24.8732
634 2 2.2208 10.9839 4.37893 24.8473
635 1 -1.1104 12.2237 0.0864651 26.1506
636 1 -1.1104 9.59902 -2.63687 23.3877
637 1 -1.1104 9.57572 3.03754 23.5666
638 2 2.2208 8.17894 1.53347 24.9235
639 1 -1.1104 9.51331 -2.59659 26.2333
640 1 -1.1104 9.63216 2.93037 26.3269
641 2 2.2208 8.21615 -1.26669 22.1394
642 2 2.2208 8.20734 4.33216 22.0395
643 1 -1.1104 9.48723 0.148521 23.5517
644 1 -1.1104 9.47803 0.238601 26.3782
590 1 -1.1104 9.61264 19.7106 26.168
712 1 -1.1104 6.76946 14.1202 26.2227
588 1 -1.1104 6.80323 19.6714 26.2689
496 1 -1.1104 3.8885 11.2385 20.6646
469 1 -1.1104 1.20667 8.47998 20.5794
421 2 2.2208 -0.207502 7.10559 22.0112
685 2 2.2208 -0.294896 12.6939 22.0295
656 2 2.2208 5.3461 7.14032 22.0197
657 2 2.2208 5.35933 12.7564 22.0306
658 1 -1.1104 1.11139 8.45332 23.4835
660 1 -1.1104 1.14761 8.41296 26.3328
662 1 -1.1104 1.21373 5.66915 23.3953
663 1 -1.1104 1.13101 11.2128 23.4317
666 2 2.2208 5.328 9.91237 24.979
667 1 -1.1104 1.18515 5.66165 26.1636
668 1 -1.1104 1.12172 11.322 26.1629
671 1 -1.1104 3.98401 8.5753 23.4077
672 2 2.2208 2.53285 7.11222 24.8512
673 2 2.2208 2.5603 12.7038 24.7693
674 1 -1.1104 3.89276 8.56322 26.2752
675 2 2.2208 2.5809 9.86141 22.1011
676 1 -1.1104 4.04965 5.69614 23.5675
677 1 -1.1104 3.93929 11.3378 23.463
678 1 -1.1104 3.94652 5.68044 26.3418
679 1 -1.1104 3.90723 11.332 26.2515
669 1 -1.1104 6.81747 5.64314 26.2582
670 1 -1.1104 6.7515 11.2538 26.2423
661 1 -1.1104 6.76786 8.39577 26.2319
380 2 2.2208 2.49021 9.99389 27.7494
621 2 2.2208 -0.0905381 7.04865 16.4265
383 2 2.2208 -0.256533 7.11341 27.6697
516 1 -1.1104 9.6013 8.65703 20.7545
504 1 -1.1104 12.4562 8.56795 20.575
616 2 2.2208 8.2182 21.0931 22.1242
497 1 -1.1104 12.3681 19.7523 23.5112
659 1 -1.1104 6.79663 8.49454 23.5046
665 1 -1.1104 6.63482 11.3013 23.5421
664 1 -1.1104 6.89743 5.59377 23.4091
687 1 -1.1104 9.53276 11.3408 26.3024
688 1 -1.1104 9.53325 5.74406 26.2507
689 1 -1.1104 9.38591 11.4067 23.3474
690 1 -1.1104 9.68447 5.79906 23.3905
691 2 2.2208 8.14826 10.0285 22.0545
692 1 -1.1104 9.63285 8.55208 26.253
693 2 2.2208 8.09793 12.7431 24.8854
694 2 2.2208 8.15989 7.08469 24.7946
695 2 2.2208 10.9684 7.2663 22.0504
696 2 2.2208 11.0035 12.7477 22.0148
697 1 -1.1104 12.447 8.49661 23.4624
698 1 -1.1104 12.4694 8.43808 26.3258
699 1 -1.1104 12.5622 5.69022 23.505
700 1 -1.1104 12.3147 11.3019 23.4464
701 2 2.2208 10.8817 10.0331 24.8318
702 1 -1.1104 12.2937 5.73494 26.2431
703 1 -1.1104 12.3561 11.3298 26.324
704 1 -1.1104 9.57777 8.63545 23.5087
386 2 2.2208 10.9552 12.6751 27.6541
9158 2 2.2208 10.9877 -4.08979 16.4186
623 2 2.2208 -0.2856 18.2479 22.1125
622 2 2.2208 -0.256799 9.91886 19.2618
533 1 -1.1104 1.15923 14.0606 20.6052
545 1 -1.1104 1.08144 16.8988 20.6166
559 1 -1.1104 3.81125 16.8188 20.6307
646 2 2.2208 -0.205656 15.4179 24.8739
339 2 2.2208 2.64405 1.50917 13.5504
645 2 2.2208 -0.308805 21.1009 24.8669
647 2 2.2208 2.51684 15.4595 21.9774
649 2 2.2208 2.61963 21.0667 22.0418
652 1 -1.1104 3.86302 17.0166 23.3427
655 1 -1.1104 1.1195 16.8529 23.5294
681 1 -1.1104 3.92891 14.1245 26.2354
682 1 -1.1104 3.90654 16.9295 26.2507
683 2 2.2208 2.55354 18.2633 24.9348
686 1 -1.1104 3.88916 19.684 26.2059
705 2 2.2208 5.36326 18.3855 22.0286
706 1 -1.1104 1.17173 14.0154 23.4109
707 1 -1.1104 1.17341 19.6615 23.4836
711 1 -1.1104 3.95074 19.7797 23.4647
713 1 -1.1104 3.92605 14.246 23.4337
715 1 -1.1104 1.08567 19.6952 26.289
716 1 -1.1104 1.09611 16.8903 26.3022
717 1 -1.1104 1.0874 14.0945 26.3576
719 2 2.2208 5.32093 21.1395 24.8409
720 2 2.2208 5.29768 15.5253 24.7945
714 1 -1.1104 6.72657 16.9271 26.2703
526 2 2.2208 10.9747 21.1533 24.8133
498 1 -1.1104 12.4554 14.0935 26.294
561 1 -1.1104 9.61028 14.1943 23.4877
525 2 2.2208 10.9715 15.455 24.9329
463 1 -1.1104 12.3341 14.0663 23.4807
524 1 -1.1104 12.3933 16.8829 23.4646
617 1 -1.1104 9.58896 16.8987 23.4636
499 1 -1.1104 12.4542 19.7191 26.2173
615 2 2.2208 8.22793 15.5238 22.0429
539 1 -1.1104 6.7979 19.7616 20.6467
709 1 -1.1104 6.76787 14.0891 23.3852
718 1 -1.1104 6.82015 19.7783 23.4843
680 1 -1.1104 6.65541 17.0511 23.4818
462 2 2.2208 11.0359 18.3384 22.1033
560 1 -1.1104 12.4693 16.8913 26.2923
589 1 -1.1104 9.55489 14.1009 26.3074
562 1 -1.1104 9.6187 19.6818 23.4256
379 2 2.2208 5.39876 7.04901 27.6666
373 2 2.2208 2.54735 15.5263 27.7102
349 2 2.2208 8.16631 21.1144 27.6205
361 2 2.2208 10.8939 15.5079 13.6087
375 2 2.2208 2.49952 21.0999 27.6386
371 2 2.2208 -0.293438 18.2721 27.6396
9041 2 2.2208 5.354 -4.08358 27.6226
369 2 2.2208 10.9253 1.55551 27.6428
359 2 2.2208 5.4015 15.5026 13.6486
360 2 2.2208 11.0538 21.158 13.61
362 2 2.2208 8.1811 18.3438 13.5848
721 2 2.2208 5.29951 23.8662 5.2588
722 2 2.2208 5.32662 29.5755 5.14594
723 1 -1.1104 1.10665 25.3323 0.997494
724 1 -1.1104 1.15549 25.3161 3.81113
725 1 -1.1104 1.12587 22.5189 1.00639
726 1 -1.1104 1.23455 28.0654 1.02504
727 2 2.2208 5.31444 26.6803 2.39245
728 1 -1.1104 1.10348 22.5374 3.80289
729 1 -1.1104 1.04777 28.1357 3.77283
730 1 -1.1104 3.8913 25.1849 1.07245
731 2 2.2208 2.51661 23.9412 2.497
732 2 2.2208 2.51312 29.6274 2.4205
733 1 -1.1104 3.90238 25.3587 3.89708
734 2 2.2208 2.5298 26.7275 5.24306
735 1 -1.1104 4.02607 22.4701 1.10732
736 1 -1.1104 3.9669 28.249 0.973155
737 1 -1.1104 3.94661 22.3919 3.78413
738 1 -1.1104 3.87622 28.0863 3.74726
867 1 -1.1104 6.76343 28.1377 6.59648
742 1 -1.1104 6.65152 25.2559 1.12472
862 1 -1.1104 1.23323 25.2493 6.55867
870 1 -1.1104 3.89231 28.196 6.67958
1660 1 -1.1104 9.47955 47.6385 12.2861
743 1 -1.1104 6.64913 25.2923 3.88579
741 2 2.2208 -0.288293 26.6672 2.41352
740 2 2.2208 -0.272698 23.8366 5.34716
1017 1 -1.1104 12.3011 45.1031 9.56331
745 1 -1.1104 6.70206 28.0063 1.05739
744 1 -1.1104 6.80732 22.3827 1.09165
866 1 -1.1104 6.71835 22.4544 6.68497
747 1 -1.1104 6.71493 28.0264 3.75074
746 1 -1.1104 6.73276 22.5352 3.85652
748 2 2.2208 10.9342 23.9735 5.18462
749 2 2.2208 10.9125 29.481 5.22456
750 1 -1.1104 12.3634 25.2569 0.926527
751 1 -1.1104 12.3205 25.3211 3.83763
752 1 -1.1104 12.3783 22.4101 1.07734
753 1 -1.1104 12.2539 28.0864 1.06891
754 2 2.2208 10.9245 26.682 2.39163
755 1 -1.1104 12.4154 22.5374 3.78392
756 1 -1.1104 12.3701 28.1362 3.84789
757 1 -1.1104 9.45926 25.3263 1.04233
758 2 2.2208 8.08773 23.8615 2.50018
759 2 2.2208 8.14712 29.4784 2.40497
760 1 -1.1104 9.45732 25.307 3.83263
761 2 2.2208 8.05115 26.7024 5.14018
762 1 -1.1104 9.65852 22.6093 0.991762
763 1 -1.1104 9.51936 28.132 1.13718
764 1 -1.1104 9.55133 22.5758 3.87958
765 1 -1.1104 9.47746 28.1769 3.83745
896 1 -1.1104 12.2911 22.5022 6.63956
895 1 -1.1104 12.3923 25.2398 6.60571
900 1 -1.1104 9.50129 28.1149 6.59959
899 1 -1.1104 9.50439 22.4466 6.691
863 1 -1.1104 6.6734 25.3642 6.66847
1090 2 2.2208 2.56409 43.5869 -0.304897
769 2 2.2208 5.18069 35.1219 5.1239
770 1 -1.1104 1.10039 30.94 1.01967
771 1 -1.1104 1.10378 36.5767 1.05561
773 1 -1.1104 1.12639 30.9221 3.78736
774 1 -1.1104 1.02621 36.5408 3.7256
776 1 -1.1104 1.0649 33.6535 0.911526
777 2 2.2208 5.41011 32.359 2.39723
778 2 2.2208 5.29708 37.9291 2.49937
779 1 -1.1104 1.07324 33.8279 3.83078
781 1 -1.1104 3.9877 31.0821 1.03114
782 1 -1.1104 3.93409 36.6376 1.03628
783 2 2.2208 2.49031 35.1867 2.37628
784 1 -1.1104 3.94289 30.9005 3.91015
785 1 -1.1104 3.76229 36.5517 3.86819
786 2 2.2208 2.40047 32.3651 5.26265
787 2 2.2208 2.44294 37.9891 5.15485
788 1 -1.1104 3.94446 33.8583 0.985189
789 1 -1.1104 3.97233 33.6958 3.72737
794 1 -1.1104 6.7533 30.9418 3.80995
926 1 -1.1104 3.70262 36.4812 6.60419
923 1 -1.1104 1.07246 33.7491 6.63624
925 1 -1.1104 3.81532 30.9759 6.67876
792 2 2.2208 -0.292285 37.9419 2.4685
922 1 -1.1104 6.53324 36.4614 6.57386
790 2 2.2208 -0.375773 35.1216 5.24382
1023 1 -1.1104 12.3302 44.9801 6.7088
1079 2 2.2208 2.56762 32.3542 -0.41733
1089 2 2.2208 -0.405808 46.4261 -0.377331
775 1 -1.1104 6.62021 36.6207 3.74825
793 1 -1.1104 6.85368 30.8586 0.961912
924 1 -1.1104 6.58301 33.7433 6.52763
921 1 -1.1104 6.68929 30.9083 6.64218
795 1 -1.1104 6.73346 33.7169 0.951909
772 1 -1.1104 6.699 36.4591 0.964649
780 1 -1.1104 6.70444 33.8857 3.74453
796 2 2.2208 10.932 35.1334 5.2769
797 1 -1.1104 12.3383 30.9312 1.00684
798 1 -1.1104 12.3484 36.6862 1.0923
799 1 -1.1104 12.2889 30.9971 3.8422
800 1 -1.1104 12.3006 36.4936 3.84304
801 1 -1.1104 12.3159 33.728 1.06597
802 2 2.2208 10.9201 32.3058 2.43964
803 2 2.2208 11.0161 38.053 2.51363
804 1 -1.1104 12.322 33.7121 3.84586
805 1 -1.1104 9.56165 30.9544 1.00864
806 1 -1.1104 9.4826 36.6009 1.06321
807 2 2.2208 8.15795 35.2517 2.42149