ITEM: TIMESTEP
70000
ITEM: NUMBER OF ATOMS
17760
ITEM: BOX BOUNDS pp pp pp
-3.3639681036835239e-01 2.7676396810368146e+01
-3.9841905951998724e+00 3.3206419059520073e+02
-3.3011156091542931e-01 2.7670111560915412e+01
ITEM: ATOMS id type q x y z
1 2 2.2208 5.31433 1.63474 5.37705
2 1 -1.1104 0.984333 -2.61027 1.18174
3 1 -1.1104 1.00268 3.05511 1.18946
6 1 -1.1104 0.995829 -2.65652 3.98464
7 1 -1.1104 1.06965 3.00981 3.96128
10 1 -1.1104 1.08547 0.235128 1.17178
12 2 2.2208 5.23909 -1.14665 2.51771
13 2 2.2208 5.28862 4.45864 2.48195
14 1 -1.1104 1.12073 0.236591 3.9264
16 1 -1.1104 3.7952 -2.63411 1.17306
17 1 -1.1104 3.84857 3.11341 1.22282
18 2 2.2208 2.47707 1.65412 2.51816
19 1 -1.1104 3.85487 -2.59019 3.88473
20 1 -1.1104 3.92093 3.03939 3.96134
21 2 2.2208 2.44971 -1.16966 5.2802
22 2 2.2208 2.46936 4.43926 5.3246
23 1 -1.1104 3.86062 0.227702 1.11391
24 1 -1.1104 3.88549 0.243038 3.97585
9033 2 2.2208 13.599 -3.83178 8.02268
9032 2 2.2208 10.8043 -3.95712 10.9535
362 2 2.2208 8.13451 18.4389 13.7097
170 1 -1.1104 1.00998 0.237873 6.79624
9031 2 2.2208 8.10832 -3.89491 8.09353
9023 2 2.2208 5.25229 -3.99908 5.39186
9024 2 2.2208 -0.371922 -4.02214 5.4727
365 2 2.2208 2.50376 -1.23971 -0.18455
50 2 2.2208 13.702 -1.0791 5.29925
233 2 2.2208 13.678 4.43758 5.30669
364 2 2.2208 5.28566 1.56636 -0.366597
4 1 -1.1104 6.63949 -2.52174 1.10934
5 1 -1.1104 6.60683 3.02249 1.04882
9 1 -1.1104 6.65044 3.04905 3.91395
15 1 -1.1104 6.67037 0.222766 3.87282
8 1 -1.1104 6.57386 -2.67435 3.89888
11 1 -1.1104 6.60917 0.300495 1.04808
31 2 2.2208 10.9122 1.60343 5.31597
32 1 -1.1104 12.1083 -2.57937 1.03313
33 1 -1.1104 12.1672 3.08105 1.21029
34 1 -1.1104 12.1647 -2.50328 3.88509
35 1 -1.1104 12.3405 3.07413 3.97036
36 1 -1.1104 12.1976 0.235959 1.08198
37 2 2.2208 10.7722 -1.0941 2.42001
38 2 2.2208 10.9288 4.46377 2.54166
39 1 -1.1104 12.2485 0.27411 3.81557
40 1 -1.1104 9.39832 -2.53897 1.14855
41 1 -1.1104 9.42609 3.08931 1.12446
42 2 2.2208 8.00048 1.67736 2.55755
43 1 -1.1104 9.34201 -2.55177 3.86196
44 1 -1.1104 9.53731 2.99215 3.98034
45 2 2.2208 8.0814 -1.12891 5.24934
46 2 2.2208 8.09426 4.42349 5.30513
47 1 -1.1104 9.37801 0.257729 1.10337
48 1 -1.1104 9.47338 0.241888 3.88513
9026 2 2.2208 10.8096 -3.89909 5.30833
386 2 2.2208 10.925 12.921 -0.340726
209 1 -1.1104 9.48073 3.03902 6.69733
9027 2 2.2208 13.5851 -3.87372 2.57593
82 2 2.2208 -0.214974 10.0779 2.44081
54 2 2.2208 5.27405 7.25815 5.22299
55 2 2.2208 5.31144 12.8412 5.26235
56 1 -1.1104 1.08393 8.70501 1.03094
58 1 -1.1104 1.21784 8.66137 3.82583
60 1 -1.1104 1.18731 5.84225 1.05461
61 1 -1.1104 1.24456 11.4809 1.05704
66 2 2.2208 5.31045 10.0407 2.48205
67 1 -1.1104 1.13245 5.92909 3.91651
68 1 -1.1104 1.11197 11.4567 3.9319
71 1 -1.1104 3.96074 8.63074 1.17958
72 2 2.2208 2.53127 7.18878 2.52929
73 2 2.2208 2.5165 12.8958 2.51883
74 1 -1.1104 3.92943 8.62951 3.85162
75 2 2.2208 2.50589 10.1235 5.26996
76 1 -1.1104 3.98908 5.84238 1.0945
77 1 -1.1104 3.88612 11.3771 1.2337
79 1 -1.1104 3.86856 5.76326 3.82876
80 1 -1.1104 3.97567 11.382 4.00365
78 1 -1.1104 3.96717 11.4019 6.62662
203 2 2.2208 13.7001 4.49673 10.848
372 2 2.2208 8.0592 4.39119 -0.277916
318 1 -1.1104 9.48812 19.8364 9.52623
229 2 2.2208 13.6766 1.74745 8.05841
380 2 2.2208 2.51675 10.0552 -0.239006
201 2 2.2208 -0.328442 1.6191 10.8997
381 2 2.2208 5.23967 12.7623 -0.32102
57 1 -1.1104 6.79577 8.59239 1.03913
64 1 -1.1104 6.64717 11.3985 1.12485
59 1 -1.1104 6.67848 8.6625 3.90104
69 1 -1.1104 6.83923 5.83077 3.8966
70 1 -1.1104 6.72637 11.4761 3.78532
63 1 -1.1104 6.80787 5.78231 1.11919
84 2 2.2208 10.8481 7.25703 5.33328
85 2 2.2208 10.886 12.8398 5.38351
86 1 -1.1104 12.312 8.76208 1.09989
87 1 -1.1104 12.3482 8.574 4.01479
88 1 -1.1104 12.2966 5.92965 1.04565
89 1 -1.1104 12.2627 11.4346 1.08779
91 2 2.2208 10.9187 10.1584 2.50632
92 1 -1.1104 12.2894 5.86062 3.89168
93 1 -1.1104 12.2673 11.4275 3.9056
94 1 -1.1104 9.55668 8.73786 1.03796
95 2 2.2208 8.16453 7.2622 2.43802
96 2 2.2208 8.11005 12.8111 2.46129
97 1 -1.1104 9.58638 8.69712 3.75719
98 2 2.2208 8.04331 10.0768 5.22935
99 1 -1.1104 9.55105 5.8456 1.06791
100 1 -1.1104 9.50759 11.4427 0.968133
102 1 -1.1104 9.52369 5.83027 3.86554
103 1 -1.1104 9.56819 11.5981 3.82729
358 2 2.2208 5.30616 21.2621 13.6087
237 1 -1.1104 6.71506 5.96743 6.69674
27 2 2.2208 -0.34845 4.41318 2.60488
29 2 2.2208 -0.359061 7.33959 10.854
106 2 2.2208 5.25953 18.5534 5.21814
107 1 -1.1104 1.06619 14.3515 1.11104
109 1 -1.1104 1.08181 19.9338 1.04567
113 1 -1.1104 1.13958 14.2578 3.88988
114 1 -1.1104 1.07695 19.8278 3.8095
116 1 -1.1104 0.989892 17.1807 1.10731
119 2 2.2208 5.27634 15.6883 2.63428
120 2 2.2208 5.26423 21.28 2.37978
121 1 -1.1104 1.05662 17.0584 3.91059
123 1 -1.1104 3.94475 14.2423 1.16825
125 1 -1.1104 3.91671 19.9275 1.0669
127 2 2.2208 2.48265 18.4802 2.51343
128 1 -1.1104 3.91917 14.1829 3.97555
129 1 -1.1104 3.78566 19.8506 3.87734
130 2 2.2208 2.42532 15.6301 5.38408
131 2 2.2208 2.45379 21.2147 5.30088
132 1 -1.1104 3.78875 17.1474 0.956873
134 1 -1.1104 3.88032 16.9697 3.89438
328 1 -1.1104 12.2534 14.3485 9.44475
368 2 2.2208 -0.286192 1.71521 -0.301342
137 2 2.2208 -0.370915 18.4419 5.30336
110 1 -1.1104 6.71103 14.2291 1.19831
126 1 -1.1104 3.91138 19.8722 6.70483
302 1 -1.1104 1.09693 19.8012 6.63573
124 1 -1.1104 3.8639 14.2802 6.66594
373 2 2.2208 2.48476 15.628 -0.318914
314 1 -1.1104 9.4477 17.0607 9.50432
138 1 -1.1104 6.67412 19.8052 0.980809
122 1 -1.1104 6.56547 17.2051 3.79643
140 1 -1.1104 6.65691 17.0317 1.02893
115 1 -1.1104 6.72331 14.3222 3.98414
139 1 -1.1104 6.66804 19.8945 3.80288
141 2 2.2208 10.8379 18.4507 5.31565
142 1 -1.1104 12.2626 14.1463 1.18078
144 1 -1.1104 12.3028 19.6859 1.09041
146 1 -1.1104 12.3494 14.2123 4.00839
147 1 -1.1104 12.2752 19.8909 3.83885
148 1 -1.1104 12.2913 16.9732 1.05978
150 2 2.2208 10.8265 15.549 2.5468
151 2 2.2208 10.7958 21.2294 2.52486
152 1 -1.1104 12.1647 17.0138 3.87058
153 1 -1.1104 9.41337 14.2359 1.1965
155 1 -1.1104 9.49616 19.77 1.02828
157 2 2.2208 8.01917 18.4136 2.41504
158 1 -1.1104 9.45311 14.2823 4.04413
159 1 -1.1104 9.43741 19.7914 3.83222
160 2 2.2208 8.14374 15.6797 5.29594
161 2 2.2208 8.05582 21.281 5.25612
162 1 -1.1104 9.4375 16.9748 1.14011
164 1 -1.1104 9.37756 17.0986 3.86952
165 2 2.2208 13.6165 18.4248 2.57574
9037 2 2.2208 10.848 -3.9871 -0.28054
112 1 -1.1104 6.76037 19.8844 6.60806
111 1 -1.1104 6.74651 14.1719 6.68888
325 2 2.2208 10.893 15.7142 8.11473
9028 2 2.2208 2.4903 -3.95274 8.17075
172 1 -1.1104 3.80126 -2.56784 6.64801
9029 2 2.2208 5.27669 -3.98369 10.8885
81 2 2.2208 -0.236157 7.24978 5.35278
173 1 -1.1104 3.87423 3.02165 6.75805
174 1 -1.1104 3.85851 0.241835 6.81647
166 1 -1.1104 1.0304 -2.49522 6.74069
167 1 -1.1104 1.11167 3.05132 6.78507
345 2 2.2208 13.6961 21.2431 -0.285334
175 2 2.2208 5.28632 1.7228 10.9545
176 1 -1.1104 1.13198 -2.52279 12.3589
177 1 -1.1104 1.02252 3.05619 12.2395
180 1 -1.1104 1.08918 -2.60909 9.57162
181 1 -1.1104 1.06721 2.99326 9.49139
184 1 -1.1104 1.05815 0.168285 12.3338
186 2 2.2208 5.17259 -1.18289 8.09734
187 2 2.2208 5.2149 4.43901 8.10207
188 1 -1.1104 1.08505 0.172343 9.58727
190 1 -1.1104 3.98175 -2.60242 12.1925
191 1 -1.1104 3.8266 3.12993 12.2612
192 2 2.2208 2.39181 1.60918 8.17101
193 1 -1.1104 3.89205 -2.55776 9.48706
194 1 -1.1104 3.75925 3.10903 9.45806
195 2 2.2208 2.4627 -1.14968 10.9173
196 2 2.2208 2.43843 4.49068 10.8001
197 1 -1.1104 3.82654 0.320391 12.3306
198 1 -1.1104 3.86978 0.219458 9.54835
199 2 2.2208 -0.332511 4.45154 8.11695
371 2 2.2208 -0.32594 18.4699 -0.264743
183 1 -1.1104 6.58344 3.04581 9.52608
179 1 -1.1104 6.64407 3.11336 12.3217
327 1 -1.1104 12.2896 19.8524 9.50384
288 1 -1.1104 6.69795 19.8998 9.50388
206 1 -1.1104 12.256 2.97179 6.68023
207 1 -1.1104 12.3374 0.349021 6.69933
169 1 -1.1104 6.70001 3.05834 6.76318
30 2 2.2208 -0.293392 10.0341 8.11425
171 1 -1.1104 6.67518 0.32165 6.61566
168 1 -1.1104 6.6603 -2.56187 6.66663
210 1 -1.1104 9.49683 0.281269 6.69519
208 1 -1.1104 9.48101 -2.47939 6.68078
202 2 2.2208 13.6488 7.30652 8.05712
205 1 -1.1104 12.2999 -2.45154 6.69928
178 1 -1.1104 6.70179 -2.53092 12.3046
185 1 -1.1104 6.65675 0.38449 12.3672
182 1 -1.1104 6.67276 -2.58152 9.43615
189 1 -1.1104 6.70875 0.280398 9.47832
211 2 2.2208 10.8435 1.7331 10.9346
212 1 -1.1104 12.2024 -2.57796 12.2577
213 1 -1.1104 12.1688 3.06232 12.2676
214 1 -1.1104 12.2274 -2.60046 9.49537
215 1 -1.1104 12.2716 3.21708 9.45776
216 1 -1.1104 12.2809 0.375357 12.3129
217 2 2.2208 10.9016 -1.10615 8.06402
218 2 2.2208 10.7706 4.41901 7.99074
219 1 -1.1104 12.3031 0.325312 9.48532
220 1 -1.1104 9.41707 -2.4279 12.3478
221 1 -1.1104 9.47239 3.12473 12.2808
222 2 2.2208 8.06622 1.62658 8.19079
223 1 -1.1104 9.56839 -2.56094 9.49109
224 1 -1.1104 9.45682 3.10476 9.56292
225 2 2.2208 8.04054 -1.12718 10.9774
226 2 2.2208 8.04033 4.51237 10.8199
227 1 -1.1104 9.41816 0.373547 12.2687
228 1 -1.1104 9.60703 0.198287 9.505
323 1 -1.1104 12.2174 17.1344 9.52631
330 1 -1.1104 12.2965 14.2721 12.2999
289 1 -1.1104 6.75621 17.1025 9.55725
239 1 -1.1104 3.94319 5.88985 6.65634
62 1 -1.1104 1.22032 11.4082 6.77954
238 1 -1.1104 3.79052 8.64122 6.65441
234 1 -1.1104 1.02526 8.72407 6.61277
236 1 -1.1104 1.1079 5.91905 6.71192
324 2 2.2208 10.9063 21.2373 8.08712
321 1 -1.1104 9.58632 19.8395 12.3326
319 1 -1.1104 9.47357 14.2713 9.50769
240 2 2.2208 5.29369 7.29514 10.9061
241 2 2.2208 5.29493 12.8983 10.8821
242 1 -1.1104 1.06583 8.64641 12.2659
244 1 -1.1104 1.12801 8.56199 9.40236
246 1 -1.1104 1.00746 5.81588 12.2044
247 1 -1.1104 1.03407 11.4337 12.2681
250 2 2.2208 5.21436 10.1705 8.07941
251 1 -1.1104 1.0873 5.81925 9.43326
252 1 -1.1104 1.06301 11.4214 9.50853
255 1 -1.1104 3.84283 8.6204 12.3228
256 2 2.2208 2.51743 7.29886 8.01173
257 2 2.2208 2.46068 12.8946 8.14086
258 1 -1.1104 3.78769 8.74557 9.39832
259 2 2.2208 2.45125 10.0894 10.818
260 1 -1.1104 3.91794 5.86831 12.2039
261 1 -1.1104 3.92518 11.3972 12.2477
262 1 -1.1104 4.03088 5.88616 9.39273
263 1 -1.1104 3.81841 11.5568 9.47619
65 1 -1.1104 6.73976 11.4209 6.68518
248 1 -1.1104 6.81037 5.92688 12.2793
331 2 2.2208 10.8485 18.4914 10.9254
265 1 -1.1104 12.2675 8.62651 6.69219
269 1 -1.1104 9.44623 5.92772 6.57747
267 1 -1.1104 9.45157 8.70692 6.55889
149 1 -1.1104 12.3569 17.0994 6.737
266 1 -1.1104 12.2743 5.81824 6.64104
90 1 -1.1104 12.3224 11.4023 6.69557
101 1 -1.1104 9.47756 11.5147 6.63099
235 1 -1.1104 6.67999 8.70997 6.63885
249 1 -1.1104 6.65697 11.4659 12.2214
253 1 -1.1104 6.76047 5.79939 9.41951
245 1 -1.1104 6.56986 8.66749 9.50582
243 1 -1.1104 6.71931 8.69956 12.2091
254 1 -1.1104 6.66029 11.5229 9.43212
264 1 -1.1104 9.51917 11.4752 9.40289
268 1 -1.1104 9.49347 5.89621 9.48764
270 1 -1.1104 9.37534 11.512 12.204
271 1 -1.1104 9.45091 5.92926 12.3364
272 2 2.2208 8.03907 10.0828 10.7913
273 1 -1.1104 9.42118 8.69879 9.44966
274 2 2.2208 8.05324 12.875 8.05983
275 2 2.2208 8.01486 7.33436 8.01009
276 2 2.2208 10.8414 7.31154 10.8532
277 2 2.2208 10.8563 12.9499 10.8022
278 1 -1.1104 12.24 8.74935 12.2771
279 1 -1.1104 12.1627 8.72683 9.4486
280 1 -1.1104 12.3471 5.8794 12.3399
281 1 -1.1104 12.22 11.4348 12.3936
282 2 2.2208 10.8808 10.1151 8.02418
283 1 -1.1104 12.2926 6.04136 9.45935
284 1 -1.1104 12.2378 11.6318 9.44915
285 1 -1.1104 9.46666 8.75906 12.2366
329 1 -1.1104 12.3464 19.8391 12.3268
133 1 -1.1104 3.89883 17.0758 6.68453
320 2 2.2208 8.08037 18.5166 8.07746
108 1 -1.1104 1.08713 14.1404 6.72903
117 1 -1.1104 1.07656 17.053 6.76519
305 1 -1.1104 3.83857 14.2549 9.42803
300 2 2.2208 5.2679 18.4378 10.8488
301 1 -1.1104 3.87163 19.8827 9.43976
304 1 -1.1104 3.91746 17.0199 9.5084
303 2 2.2208 2.50838 18.4656 8.13442
298 1 -1.1104 0.975581 19.8259 12.2805
310 2 2.2208 2.52661 15.6646 10.9821
295 2 2.2208 5.33291 15.652 8.09084
309 2 2.2208 2.46141 21.2631 10.8184
308 1 -1.1104 3.81792 17.0932 12.349
307 1 -1.1104 1.13173 17.0956 12.1848
299 1 -1.1104 1.07424 14.1387 12.2034
286 1 -1.1104 3.85449 19.8795 12.2556
287 1 -1.1104 3.82328 14.3362 12.273
291 1 -1.1104 1.00652 19.911 9.44305
292 1 -1.1104 1.03369 16.9541 9.55225
293 2 2.2208 5.31882 21.2991 8.11144
294 1 -1.1104 1.06635 14.2445 9.43903
290 1 -1.1104 6.63478 14.3487 9.40019
297 1 -1.1104 6.6713 14.2383 12.212
118 1 -1.1104 6.73096 17.062 6.69327
326 1 -1.1104 12.2898 17.0844 12.3176
143 1 -1.1104 12.2363 14.2531 6.68559
156 1 -1.1104 9.52053 19.9449 6.6462
163 1 -1.1104 9.44384 17.2334 6.65861
154 1 -1.1104 9.61638 14.2815 6.73463
145 1 -1.1104 12.2931 19.9162 6.65094
322 1 -1.1104 9.52037 14.3053 12.2394
316 2 2.2208 8.05811 21.2636 10.8647
317 2 2.2208 8.08016 15.6423 10.9281
315 1 -1.1104 9.48901 17.0365 12.3325
306 1 -1.1104 6.69084 17.118 12.2745
296 1 -1.1104 6.67355 19.9094 12.3231
53 2 2.2208 13.7312 12.8416 8.02294
52 2 2.2208 13.5794 10.0754 10.8673
230 2 2.2208 13.6269 -1.13239 10.9076
51 2 2.2208 -0.281549 12.7836 10.8155
231 2 2.2208 13.7687 21.2369 5.31235
136 2 2.2208 -0.317059 21.3036 2.42944
378 2 2.2208 13.5846 4.41125 -0.294708
352 2 2.2208 5.23068 10.055 13.6363
336 2 2.2208 13.626 7.21857 13.6738
351 2 2.2208 2.49599 7.35178 13.6286
354 2 2.2208 8.06855 7.36325 13.6983
385 2 2.2208 8.12434 10.1417 -0.323723
357 2 2.2208 2.44888 18.5067 13.6571
359 2 2.2208 5.36016 15.6416 13.6697
348 2 2.2208 10.8878 18.3446 -0.344633
335 2 2.2208 -0.33248 21.2228 13.7365
388 2 2.2208 5.44451 1.73852 16.5081
389 1 -1.1104 1.12949 -2.50373 17.8431
390 1 -1.1104 1.02537 3.01974 17.8511
393 1 -1.1104 1.02371 -2.52343 15.0717
395 1 -1.1104 1.15571 3.07131 14.9344
401 1 -1.1104 1.12212 0.276375 17.756
403 2 2.2208 5.23747 -1.16007 19.2845
404 2 2.2208 5.38777 4.47238 19.2977
405 1 -1.1104 0.954612 0.329181 15.1067
409 1 -1.1104 3.91662 -2.63104 17.8674
410 1 -1.1104 3.87711 3.13658 18.0536
411 2 2.2208 2.50001 1.64045 19.264
412 1 -1.1104 4.01184 -2.63412 15.1022
414 1 -1.1104 4.0165 3.0371 15.1731
416 2 2.2208 2.45742 -1.1588 16.4681
417 2 2.2208 2.52529 4.51781 16.5302
418 1 -1.1104 3.86624 0.307043 17.8594
419 1 -1.1104 3.83438 0.20789 14.9923
9157 2 2.2208 8.06183 -3.89032 19.3828
9121 2 2.2208 2.54187 -3.94922 24.9595
9045 2 2.2208 8.03401 -3.91431 13.7917
406 1 -1.1104 0.991489 0.232243 20.7083
9049 2 2.2208 2.49467 -3.90191 13.6515
9188 2 2.2208 5.25401 -4.00472 16.5288
402 1 -1.1104 6.71421 0.405184 17.8399
9187 2 2.2208 2.43851 -3.93768 19.3552
420 1 -1.1104 3.8731 0.183941 20.6261
396 1 -1.1104 1.12804 3.07902 20.7415
337 2 2.2208 -0.333491 4.44776 13.6088
339 2 2.2208 2.41806 1.66709 13.6183
424 2 2.2208 -0.295039 1.73055 16.5163
338 2 2.2208 5.27899 -1.10524 13.7385
9158 2 2.2208 10.9275 -3.8307 16.5737
397 1 -1.1104 6.80384 -2.45731 15.1188
392 1 -1.1104 6.71797 3.02615 17.9132
407 1 -1.1104 6.8059 0.392459 15.1599
391 1 -1.1104 6.67664 -2.58008 17.9531
399 1 -1.1104 6.73965 3.25645 15.0263
431 2 2.2208 10.9308 1.70747 16.6012
432 1 -1.1104 12.2784 -2.50039 17.9845
433 1 -1.1104 12.3698 3.1278 18.0391
434 1 -1.1104 12.2256 -2.54425 15.175
436 1 -1.1104 12.2437 3.02595 15.1266
438 1 -1.1104 12.2223 0.369301 18.0046
439 2 2.2208 10.8851 -1.13773 19.3484
440 2 2.2208 10.969 4.40393 19.3548
441 1 -1.1104 12.2315 0.288623 15.1851
443 1 -1.1104 9.38119 -2.4692 18.0268
444 1 -1.1104 9.46073 3.06234 17.9522
445 2 2.2208 8.15956 1.65773 19.322
446 1 -1.1104 9.50944 -2.49407 15.2737
448 1 -1.1104 9.46635 3.06793 15.1523
450 2 2.2208 8.10859 -1.13048 16.557
451 2 2.2208 8.09963 4.52806 16.5313
452 1 -1.1104 9.52176 0.325303 18.0586
453 1 -1.1104 9.54021 0.326072 15.1376
435 1 -1.1104 12.2897 -2.43243 20.7823
437 1 -1.1104 12.3298 3.13407 20.7814
449 1 -1.1104 9.48127 3.0894 20.8114
343 2 2.2208 8.05604 1.77659 13.6272
623 2 2.2208 -0.33384 18.4981 22.0415
398 1 -1.1104 6.70664 -2.55675 20.7029
442 1 -1.1104 12.4076 0.221577 20.7996
447 1 -1.1104 9.38884 -2.52656 20.8312
562 1 -1.1104 9.45285 19.8918 23.5165
350 2 2.2208 10.8848 4.51232 13.7359
464 2 2.2208 5.22758 7.27168 16.5512
465 2 2.2208 5.25863 12.8468 16.4574
466 1 -1.1104 1.06049 8.54349 17.7745
468 1 -1.1104 1.20938 8.72187 15.0761
472 1 -1.1104 1.02113 5.79312 17.8394
473 1 -1.1104 1.16256 11.3964 17.7975
476 2 2.2208 5.2233 10.0667 19.2336
477 1 -1.1104 1.12031 5.8832 15.0275
479 1 -1.1104 1.02844 11.4314 15.041
485 1 -1.1104 3.86431 8.67537 17.8765
486 2 2.2208 2.44195 7.22171 19.3195
487 2 2.2208 2.53757 12.8867 19.2927
488 1 -1.1104 3.87792 8.59527 15.1534
490 2 2.2208 2.50769 10.0446 16.46
491 1 -1.1104 3.87414 5.85366 17.9354
492 1 -1.1104 3.95605 11.3987 17.8579
493 1 -1.1104 3.91768 5.93987 14.9521
495 1 -1.1104 3.7567 11.4547 14.9984
589 1 -1.1104 9.61641 14.337 26.3824
494 1 -1.1104 3.90053 5.80302 20.7145
467 1 -1.1104 6.6544 8.7496 17.883
353 2 2.2208 2.46874 12.8542 13.6023
651 2 2.2208 13.701 7.29886 19.2709
346 2 2.2208 10.8603 -1.076 13.6527
475 1 -1.1104 6.75173 11.514 17.8626
474 1 -1.1104 6.6865 5.88235 17.8919
481 1 -1.1104 6.68597 6.08385 15.187
470 1 -1.1104 6.63031 8.76528 14.9806
483 1 -1.1104 6.63243 11.5021 15.0584
500 2 2.2208 10.8942 7.30419 16.4575
501 2 2.2208 10.841 12.8463 16.5013
502 1 -1.1104 12.2856 8.63925 17.8499
503 1 -1.1104 12.2545 8.62786 15.0545
505 1 -1.1104 12.2298 5.85152 17.9096
506 1 -1.1104 12.2139 11.4154 17.8356
507 2 2.2208 10.8004 10.1131 19.3272
508 1 -1.1104 12.2495 5.93056 15.0322
510 1 -1.1104 12.2093 11.5181 15.0545
512 1 -1.1104 9.533 8.65212 17.8163
513 2 2.2208 8.12217 7.28336 19.3403
514 2 2.2208 8.10883 12.8809 19.326
515 1 -1.1104 9.50676 8.69118 15.139
517 2 2.2208 8.02505 10.0868 16.5395
518 1 -1.1104 9.45631 5.84752 17.9586
519 1 -1.1104 9.4664 11.4674 17.8806
520 1 -1.1104 9.48995 5.90752 15.1341
522 1 -1.1104 9.31128 11.4961 15.1377
426 2 2.2208 13.6048 10.0176 16.4866
511 1 -1.1104 12.3446 11.497 20.716
509 1 -1.1104 12.3447 5.91942 20.7007
504 1 -1.1104 12.3379 8.78214 20.6252
347 2 2.2208 8.028 15.583 27.6888
341 2 2.2208 5.35425 4.56582 13.6811
355 2 2.2208 10.7988 10.0713 13.7683
626 2 2.2208 -0.30134 4.47013 24.8927
456 2 2.2208 -0.316236 18.4289 16.4023
527 2 2.2208 5.27074 18.4723 16.4233
528 1 -1.1104 1.01636 14.1704 17.9708
529 1 -1.1104 1.08354 19.8129 17.827
532 1 -1.1104 1.14794 14.1937 15.0858
534 1 -1.1104 1.11398 19.8689 15.1066
540 1 -1.1104 1.04417 17.0105 17.9244
542 2 2.2208 5.23944 15.6497 19.2091
543 2 2.2208 5.31645 21.2575 19.2857
544 1 -1.1104 1.18038 17.0383 15.1225
548 1 -1.1104 3.88967 14.2166 17.8327
549 1 -1.1104 3.91139 19.8268 17.9034
550 2 2.2208 2.47217 18.4421 19.2416
551 1 -1.1104 3.93873 14.2067 15.0547
553 1 -1.1104 3.92005 19.7984 15.0201
555 2 2.2208 2.50277 15.6335 16.4261
556 2 2.2208 2.56138 21.2769 16.4681
557 1 -1.1104 3.88905 17.1232 17.8103
558 1 -1.1104 3.92532 17.0315 15.1041
423 2 2.2208 13.6874 4.45424 22.1301
383 2 2.2208 -0.239295 7.25799 27.6749
541 1 -1.1104 6.65716 17.1719 17.8534
648 2 2.2208 -0.240852 12.8466 16.4276
552 1 -1.1104 3.83134 14.272 20.6336
590 1 -1.1104 9.45922 19.8198 26.2986
536 1 -1.1104 6.60656 14.3337 15.057
531 1 -1.1104 6.6542 19.8353 17.8419
458 2 2.2208 -0.297191 21.2049 19.2457
539 1 -1.1104 6.74616 19.8729 20.6822
546 1 -1.1104 6.7024 17.0718 15.0483
530 1 -1.1104 6.61797 14.3024 17.8855
538 1 -1.1104 6.62514 19.8699 15.0812
563 2 2.2208 10.9345 18.3583 16.5532
564 1 -1.1104 12.1883 14.2021 17.9437
565 1 -1.1104 12.3991 19.7861 17.8735
566 1 -1.1104 12.2088 14.3044 15.144
568 1 -1.1104 12.3319 19.8467 15.0485
570 1 -1.1104 12.3101 17.0562 17.9336
571 2 2.2208 10.8012 15.6485 19.3019
572 2 2.2208 10.8793 21.2363 19.3778
573 1 -1.1104 12.2781 17.1107 15.1419
575 1 -1.1104 9.38193 14.292 17.8646
576 1 -1.1104 9.53632 19.8437 17.926
577 2 2.2208 8.08011 18.4359 19.194
578 1 -1.1104 9.38378 14.2327 15.1082
580 1 -1.1104 9.44534 19.8092 15.1592
582 2 2.2208 7.9669 15.6493 16.4984
583 2 2.2208 8.11346 21.1793 16.5163
584 1 -1.1104 9.44717 16.9927 17.9328
585 1 -1.1104 9.53553 17.045 15.1022
685 2 2.2208 -0.280622 12.831 22.0705
567 1 -1.1104 12.2551 14.2917 20.8176
620 1 -1.1104 9.48327 17.0727 26.2187
463 1 -1.1104 12.3363 14.1034 23.5493
561 1 -1.1104 9.5543 14.2779 23.4759
415 1 -1.1104 3.91903 2.91548 20.8549
413 1 -1.1104 3.85094 -2.55775 20.7385
394 1 -1.1104 1.09754 -2.54874 20.7097
9156 2 2.2208 -0.399152 -3.91619 22.1725
586 1 -1.1104 9.43582 17.1108 20.6501
625 2 2.2208 -0.265167 1.74922 22.1628
525 2 2.2208 10.8858 15.6678 24.8685
591 2 2.2208 5.31853 1.6969 22.0893
592 1 -1.1104 1.11091 -2.5172 23.6161
593 1 -1.1104 1.02473 3.01205 23.5929
596 1 -1.1104 1.12427 -2.54675 26.3917
597 1 -1.1104 1.05746 3.10461 26.3412
600 1 -1.1104 0.991796 0.281334 23.5793
602 2 2.2208 5.19241 -1.134 24.9181
603 2 2.2208 5.24489 4.40518 24.9725
604 1 -1.1104 1.09758 0.299014 26.3119
606 1 -1.1104 3.85889 -2.54122 23.4859
607 1 -1.1104 3.8713 3.02103 23.5846
608 2 2.2208 2.4554 1.58896 24.8966
609 1 -1.1104 3.85939 -2.52801 26.2974
610 1 -1.1104 3.82927 2.98007 26.3198
611 2 2.2208 2.45063 -1.15134 22.1039
612 2 2.2208 2.4887 4.44022 22.0528
613 1 -1.1104 3.83037 0.225761 23.459
614 1 -1.1104 3.82094 0.235899 26.3489
621 2 2.2208 -0.356872 7.15963 16.4659
9122 2 2.2208 5.26564 -3.98295 22.0738
622 2 2.2208 -0.293196 10.0435 19.2613
9119 2 2.2208 10.8654 -3.90378 22.1214
408 1 -1.1104 6.64219 0.283897 20.7472
454 1 -1.1104 9.52504 0.334935 20.8172
9118 2 2.2208 8.1059 -3.96652 24.8728
400 1 -1.1104 6.72583 3.07857 20.6643
599 1 -1.1104 6.59263 2.98528 26.2795
605 1 -1.1104 6.63767 0.22728 26.1916
598 1 -1.1104 6.58485 -2.52324 26.3163
595 1 -1.1104 6.67374 3.04784 23.4178
601 1 -1.1104 6.64319 0.275897 23.4846
594 1 -1.1104 6.66883 -2.62133 23.5513
627 2 2.2208 10.8599 1.65879 22.195
628 1 -1.1104 12.2559 -2.50824 23.5299
629 1 -1.1104 12.169 3.10472 23.6257
630 1 -1.1104 12.2026 -2.6286 26.2953
631 1 -1.1104 12.1191 3.14637 26.4011
632 1 -1.1104 12.2991 0.290843 23.4646
633 2 2.2208 10.9036 -1.18703 24.9756
634 2 2.2208 10.8022 4.46007 24.9266
635 1 -1.1104 12.1964 0.287639 26.3066
636 1 -1.1104 9.46419 -2.51245 23.5599
637 1 -1.1104 9.40167 3.05145 23.556
638 2 2.2208 8.00487 1.64809 24.8801
639 1 -1.1104 9.35184 -2.49147 26.3316
640 1 -1.1104 9.36258 3.09161 26.3021
641 2 2.2208 8.05877 -1.13621 22.1945
642 2 2.2208 8.07796 4.51181 22.1546
643 1 -1.1104 9.44587 0.235755 23.6175
644 1 -1.1104 9.42721 0.337584 26.3552
524 1 -1.1104 12.2472 17.1043 23.5119
714 1 -1.1104 6.73977 16.9432 26.3062
499 1 -1.1104 12.3582 19.8058 26.3468
560 1 -1.1104 12.3127 16.9717 26.1797
478 1 -1.1104 1.11684 5.83051 20.6764
480 1 -1.1104 1.15864 11.3861 20.7424
469 1 -1.1104 1.0715 8.62445 20.6586
489 1 -1.1104 3.77171 8.60152 20.6649
496 1 -1.1104 3.99265 11.4768 20.6226
616 2 2.2208 8.11055 21.2177 22.0924
569 1 -1.1104 12.3087 19.916 20.7147
579 1 -1.1104 9.46415 14.2636 20.7636
656 2 2.2208 5.27983 7.23474 21.9745
657 2 2.2208 5.25637 12.8395 22.0765
658 1 -1.1104 1.0568 8.56869 23.5011
660 1 -1.1104 1.20176 8.69011 26.2458
662 1 -1.1104 1.14739 5.75612 23.3706
663 1 -1.1104 1.0005 11.3531 23.435
666 2 2.2208 5.30401 10.0388 24.9329
667 1 -1.1104 1.10081 5.83726 26.2581
668 1 -1.1104 1.05302 11.445 26.2895
671 1 -1.1104 3.92638 8.4989 23.4257
672 2 2.2208 2.52209 7.26013 24.8396
673 2 2.2208 2.44487 12.6972 24.966
674 1 -1.1104 3.84509 8.78009 26.2424
675 2 2.2208 2.47789 9.97131 22.0661
676 1 -1.1104 3.97953 5.78703 23.5049
677 1 -1.1104 3.84475 11.2899 23.4369
678 1 -1.1104 3.92474 5.9273 26.3719
679 1 -1.1104 3.83499 11.4151 26.3752
670 1 -1.1104 6.6183 11.5054 26.2762
665 1 -1.1104 6.66802 11.4016 23.4356
471 1 -1.1104 6.63437 8.63638 20.7685
484 1 -1.1104 6.77134 11.3266 20.7189
516 1 -1.1104 9.4462 8.74505 20.7305
482 1 -1.1104 6.7924 5.89803 20.6558
617 1 -1.1104 9.45191 17.1124 23.4308
523 1 -1.1104 9.54047 11.5686 20.7184
659 1 -1.1104 6.66969 8.68684 23.5947
664 1 -1.1104 6.70537 5.89017 23.4105
661 1 -1.1104 6.64192 8.6747 26.3967
669 1 -1.1104 6.61081 5.68745 26.3684
521 1 -1.1104 9.553 5.98557 20.7356
687 1 -1.1104 9.45443 11.5288 26.1681
688 1 -1.1104 9.43368 5.97525 26.2524
689 1 -1.1104 9.46708 11.5136 23.4678
690 1 -1.1104 9.55284 5.97972 23.492
691 2 2.2208 8.07279 10.0345 22.1904
692 1 -1.1104 9.48099 8.77747 26.2589
693 2 2.2208 8.06949 12.8363 24.8701
694 2 2.2208 8.00002 7.25818 24.9349
695 2 2.2208 10.8753 7.33173 22.0857
696 2 2.2208 10.9529 12.8166 22.1529
697 1 -1.1104 12.3492 8.6795 23.4658
698 1 -1.1104 12.2834 8.7554 26.339
699 1 -1.1104 12.3032 5.87847 23.4749
700 1 -1.1104 12.3047 11.5049 23.4735
701 2 2.2208 10.9315 10.0976 24.8872
702 1 -1.1104 12.2327 5.92203 26.2823
703 1 -1.1104 12.2982 11.4757 26.2776
704 1 -1.1104 9.49648 8.69399 23.5197
588 1 -1.1104 6.68831 19.8446 26.2874
680 1 -1.1104 6.61259 16.9775 23.462
718 1 -1.1104 6.74855 19.73 23.4666
535 1 -1.1104 1.05691 19.7945 20.6418
545 1 -1.1104 1.13548 17.0439 20.7227
533 1 -1.1104 1.03726 14.2705 20.7428
547 1 -1.1104 6.69715 16.9795 20.6305
537 1 -1.1104 6.5384 14.2099 20.6838
554 1 -1.1104 3.8517 19.8491 20.7173
559 1 -1.1104 3.85492 16.981 20.7104
645 2 2.2208 -0.30739 21.2431 24.7788
647 2 2.2208 2.46404 15.7047 22.1581
649 2 2.2208 2.51998 21.1857 22.0839
652 1 -1.1104 3.89968 16.9431 23.4512
655 1 -1.1104 1.08842 17.0395 23.5861
681 1 -1.1104 3.90165 14.1041 26.3225
682 1 -1.1104 3.87232 17.0648 26.2296
683 2 2.2208 2.43706 18.442 24.8834
686 1 -1.1104 3.82313 19.8986 26.2687
705 2 2.2208 5.25004 18.3654 22.0688
706 1 -1.1104 1.08387 14.2596 23.5844
707 1 -1.1104 1.08579 19.8783 23.4163
711 1 -1.1104 3.86859 19.8032 23.5181
713 1 -1.1104 3.77385 14.1942 23.4423
715 1 -1.1104 1.1082 19.8758 26.2362
716 1 -1.1104 1.11796 17.0254 26.3578
717 1 -1.1104 1.07412 14.2359 26.29
719 2 2.2208 5.25706 21.212 24.9198
720 2 2.2208 5.22184 15.5153 24.8564
712 1 -1.1104 6.76326 14.2707 26.3044
709 1 -1.1104 6.62691 14.0917 23.4804
574 1 -1.1104 12.2698 17.1348 20.6631
498 1 -1.1104 12.328 14.2902 26.2972
587 2 2.2208 8.02631 18.3764 24.8921
526 2 2.2208 10.9273 21.1991 25.0119
497 1 -1.1104 12.2909 19.9816 23.4793
581 1 -1.1104 9.42136 19.9027 20.6793
462 2 2.2208 10.9344 18.5057 22.0938
615 2 2.2208 8.10488 15.6571 22.021
9044 2 2.2208 13.5801 -3.95762 13.6854
382 2 2.2208 -0.325581 12.8903 27.6343
684 2 2.2208 -0.326111 9.9172 24.8557
461 2 2.2208 13.6989 21.2608 22.0778
421 2 2.2208 -0.337509 7.26837 21.9913
360 2 2.2208 10.8285 21.2777 13.7338
375 2 2.2208 2.44314 21.2437 27.6808
384 2 2.2208 10.9373 7.25946 27.7333
366 2 2.2208 2.5099 4.43927 27.723
379 2 2.2208 5.2854 7.29822 27.7131
370 2 2.2208 7.98347 -1.12169 27.6787
369 2 2.2208 10.7983 1.66359 27.772
374 2 2.2208 5.31275 18.4091 27.6383
356 2 2.2208 8.08205 12.8428 13.6776
349 2 2.2208 8.08316 21.2715 27.625
361 2 2.2208 10.8956 15.6256 13.7007
367 2 2.2208 -0.298452 10.0455 13.6984
376 2 2.2208 13.6582 12.9223 13.7472
721 2 2.2208 5.24372 24.0542 5.24782
722 2 2.2208 5.21204 29.6389 5.21981
723 1 -1.1104 0.954081 25.4883 1.09251
724 1 -1.1104 0.951434 25.5161 3.91191
725 1 -1.1104 1.0797 22.6294 0.987607
726 1 -1.1104 1.0767 28.2803 1.02841
727 2 2.2208 5.19401 26.9355 2.40141
728 1 -1.1104 1.07335 22.6644 3.8634
729 1 -1.1104 0.917377 28.3578 3.89735
730 1 -1.1104 3.79519 25.4781 1.05704
731 2 2.2208 2.38465 24.117 2.40124
732 2 2.2208 2.39819 29.7289 2.40341
733 1 -1.1104 3.69202 25.4838 3.77955
734 2 2.2208 2.47307 26.9229 5.21029
735 1 -1.1104 3.83817 22.6494 0.989005
736 1 -1.1104 3.7615 28.2677 1.05995
737 1 -1.1104 3.93531 22.5813 3.86467
738 1 -1.1104 3.80997 28.2816 3.83125
1041 2 2.2208 -0.274556 35.215 10.9117
862 1 -1.1104 1.04361 25.3631 6.64815
865 1 -1.1104 1.16629 28.3168 6.70416
745 1 -1.1104 6.65429 28.2372 1.05231
746 1 -1.1104 6.67124 22.683 3.8861
742 1 -1.1104 6.6465 25.5642 1.05514
866 1 -1.1104 6.67676 22.6418 6.56691
1080 2 2.2208 5.2344 35.3106 -0.444838
869 1 -1.1104 3.84505 22.703 6.66649
868 1 -1.1104 3.83882 25.5564 6.64372
1009 1 -1.1104 9.1443 39.4131 9.27386
1081 2 2.2208 10.8522 46.4613 -0.29119
1045 2 2.2208 2.41469 29.6589 13.6894
1072 2 2.2208 5.14499 29.6709 -0.30027
743 1 -1.1104 6.5647 25.4701 3.7649
747 1 -1.1104 6.63176 28.2159 3.87601
744 1 -1.1104 6.5646 22.7409 1.01968
748 2 2.2208 10.9296 24.0527 5.30359
749 2 2.2208 10.9576 29.5959 5.19144
750 1 -1.1104 12.238 25.4774 1.11594
751 1 -1.1104 12.2126 25.5099 3.91725
752 1 -1.1104 12.2128 22.5997 1.12212
753 1 -1.1104 12.2331 28.2711 1.17685
754 2 2.2208 10.9482 26.7981 2.46421
755 1 -1.1104 12.2787 22.5876 3.82924
756 1 -1.1104 12.4069 28.2204 3.93322
757 1 -1.1104 9.42474 25.4535 1.02717
758 2 2.2208 7.9676 24.0221 2.45418
759 2 2.2208 8.05701 29.5385 2.51006
760 1 -1.1104 9.40899 25.44 3.86435
761 2 2.2208 8.06599 26.8279 5.25491
762 1 -1.1104 9.39658 22.616 1.01282
763 1 -1.1104 9.44497 28.2953 0.987574
764 1 -1.1104 9.4755 22.6849 3.78458
765 1 -1.1104 9.518 28.2446 3.86534
897 1 -1.1104 12.4546 28.1258 6.70667
867 1 -1.1104 6.61472 28.2432 6.61591
896 1 -1.1104 12.2647 22.6544 6.72445
1082 2 2.2208 -0.300548 35.2682 -0.407078
895 1 -1.1104 12.3352 25.3684 6.70545
983 1 -1.1104 7.04055 39.6171 12.1096
1019 2 2.2208 10.8804 43.653 8.13929
997 1 -1.1104 6.94325 42.4945 12.3439
1075 2 2.2208 8.0545 26.8915 -0.259179
839 2 2.2208 -0.333991 40.9496 5.28691
769 2 2.2208 5.29053 35.2397 5.21979
770 1 -1.1104 0.988984 31.1369 1.11087
771 1 -1.1104 0.997477 36.6582 0.959609
773 1 -1.1104 1.11664 31.0942 3.86751
774 1 -1.1104 1.08646 36.673 3.77997
776 1 -1.1104 1.09333 33.9203 0.998464
777 2 2.2208 5.27343 32.397 2.39758
778 2 2.2208 5.28536 38.0887 2.56894
779 1 -1.1104 1.05381 33.8472 3.90942
781 1 -1.1104 3.79832 31.0779 1.06402
782 1 -1.1104 3.82595 36.6504 1.0128
783 2 2.2208 2.53313 35.3138 2.48778
784 1 -1.1104 3.78844 31.0688 3.80138
785 1 -1.1104 3.87109 36.7226 3.79147
786 2 2.2208 2.4452 32.4891 5.24736
787 2 2.2208 2.43531 38.126 5.17624
788 1 -1.1104 3.91217 33.7975 0.990415
789 1 -1.1104 3.80584 33.9099 3.84585
1030 3 0 12.4488 41.1136 12.2158
923 1 -1.1104 1.01365 33.881 6.60674
920 1 -1.1104 1.1029 36.6325 6.65418
922 1 -1.1104 6.58836 36.7389 6.57121
1078 2 2.2208 2.45139 38.0484 -0.2402
1015 2 2.2208 8.0105 41.0515 8.01892
919 1 -1.1104 1.08194 31.1105 6.64345
926 1 -1.1104 3.82699 36.678 6.54605
925 1 -1.1104 3.85916 31.0315 6.75176
924 1 -1.1104 6.65433 33.777 6.61204