ITEM: TIMESTEP
60000
ITEM: NUMBER OF ATOMS
17760
ITEM: BOX BOUNDS pp pp pp
-3.3656620806664317e-01 2.7676566208066451e+01
-3.9798523084137485e+00 3.3205985230841520e+02
-3.3684491138430067e-01 2.7676844911384272e+01
ITEM: ATOMS id type q x y z
1 2 2.2208 5.18599 1.62838 5.30959
2 1 -1.1104 1.00533 -2.57547 1.12438
3 1 -1.1104 1.08353 3.07024 1.11337
6 1 -1.1104 1.03867 -2.5533 3.9366
7 1 -1.1104 1.23361 2.99094 3.78582
10 1 -1.1104 1.11906 0.295596 1.09823
12 2 2.2208 5.34652 -1.16847 2.45211
13 2 2.2208 5.23096 4.33915 2.4055
14 1 -1.1104 1.05665 0.246567 3.82512
16 1 -1.1104 3.88461 -2.5115 1.01515
17 1 -1.1104 3.91721 2.91061 1.11162
18 2 2.2208 2.5603 1.62191 2.39762
19 1 -1.1104 3.86042 -2.54768 3.96354
20 1 -1.1104 3.89684 2.96396 3.79656
21 2 2.2208 2.4016 -1.20348 5.26731
22 2 2.2208 2.53702 4.34954 5.32545
23 1 -1.1104 3.91384 0.137968 1.04656
24 1 -1.1104 3.81442 0.169964 3.86791
364 2 2.2208 5.29838 1.497 -0.332098
4 1 -1.1104 6.69801 -2.60542 0.978368
9022 2 2.2208 2.44151 -3.94435 2.46409
365 2 2.2208 2.42379 -1.18674 -0.281471
9041 2 2.2208 5.25454 -3.9665 -0.342056
9 1 -1.1104 6.59823 2.91267 3.95656
9023 2 2.2208 5.25863 -3.99628 5.29524
168 1 -1.1104 6.6552 -2.6171 6.73269
9024 2 2.2208 -0.349234 -3.93537 5.30923
366 2 2.2208 2.4214 4.48015 -0.34876
9026 2 2.2208 10.7941 -4.01672 5.2336
15 1 -1.1104 6.72227 0.181844 3.95331
8 1 -1.1104 6.58468 -2.61416 3.88366
370 2 2.2208 8.0616 -1.21079 -0.335232
5 1 -1.1104 6.75326 3.0784 1.0937
11 1 -1.1104 6.65656 0.276019 0.998269
31 2 2.2208 10.9366 1.51519 5.29886
32 1 -1.1104 12.2579 -2.57487 1.1135
33 1 -1.1104 12.3502 2.92975 1.11347
34 1 -1.1104 12.2481 -2.63529 3.83656
35 1 -1.1104 12.2559 2.96914 3.93171
36 1 -1.1104 12.3333 0.126883 1.13019
37 2 2.2208 10.8909 -1.15715 2.51103
38 2 2.2208 10.9411 4.39634 2.49185
39 1 -1.1104 12.3305 0.10521 4.0004
40 1 -1.1104 9.36608 -2.65594 1.10812
41 1 -1.1104 9.49467 2.93202 1.13218
42 2 2.2208 8.00644 1.60693 2.46774
43 1 -1.1104 9.37223 -2.59344 3.81467
44 1 -1.1104 9.49553 3.07262 3.8345
45 2 2.2208 8.13085 -1.17629 5.33661
46 2 2.2208 8.00873 4.2934 5.28562
47 1 -1.1104 9.35046 0.184408 1.11052
48 1 -1.1104 9.54655 0.141639 3.95455
369 2 2.2208 10.794 1.57927 -0.229165
9025 2 2.2208 8.09761 -3.96538 2.53903
169 1 -1.1104 6.63453 3.00689 6.75917
233 2 2.2208 13.6736 4.37003 5.27963
209 1 -1.1104 9.45764 2.88718 6.65353
206 1 -1.1104 12.2017 2.92462 6.75936
381 2 2.2208 5.24022 12.8103 -0.374889
379 2 2.2208 5.29939 7.23866 -0.37964
54 2 2.2208 5.26419 7.19935 5.26357
55 2 2.2208 5.15826 12.7818 5.22078
56 1 -1.1104 1.09807 8.62968 1.07489
58 1 -1.1104 1.07459 8.4959 4.03182
60 1 -1.1104 0.985317 5.86492 1.16187
61 1 -1.1104 1.05017 11.3558 1.01745
66 2 2.2208 5.22433 10.0596 2.41776
67 1 -1.1104 1.09297 5.77665 3.92909
68 1 -1.1104 1.00949 11.3877 3.9339
71 1 -1.1104 3.88936 8.59391 1.04413
72 2 2.2208 2.47595 7.14747 2.5613
73 2 2.2208 2.33827 12.7662 2.44786
74 1 -1.1104 3.88799 8.72712 3.88829
75 2 2.2208 2.47301 10.0211 5.30716
76 1 -1.1104 3.74347 5.71645 1.19168
77 1 -1.1104 3.84511 11.4863 0.969573
79 1 -1.1104 3.87223 5.76553 3.98636
80 1 -1.1104 3.8173 11.4033 3.83772
236 1 -1.1104 1.01182 5.72216 6.65476
83 2 2.2208 -0.372465 12.8024 5.29036
69 1 -1.1104 6.54026 5.80116 3.85358
70 1 -1.1104 6.60675 11.4007 3.91024
57 1 -1.1104 6.70351 8.53066 1.10492
63 1 -1.1104 6.63916 5.83406 1.06285
235 1 -1.1104 6.55744 8.61007 6.68016
238 1 -1.1104 3.85712 8.51721 6.72803
234 1 -1.1104 0.998057 8.48592 6.80952
62 1 -1.1104 1.07311 11.4244 6.75854
64 1 -1.1104 6.63236 11.4228 1.11923
59 1 -1.1104 6.56083 8.638 3.88395
386 2 2.2208 10.8937 12.8097 -0.346948
84 2 2.2208 10.8291 7.20134 5.23681
85 2 2.2208 10.9581 12.7915 5.30468
86 1 -1.1104 12.3704 8.59327 1.13231
87 1 -1.1104 12.2978 8.58852 4.00841
88 1 -1.1104 12.3024 5.79098 1.06595
89 1 -1.1104 12.2853 11.349 1.06124
91 2 2.2208 10.8779 10.0172 2.53265
92 1 -1.1104 12.3085 5.83274 3.90607
93 1 -1.1104 12.3418 11.4413 3.82951
94 1 -1.1104 9.53305 8.72963 1.18968
95 2 2.2208 8.0085 7.26318 2.54197
96 2 2.2208 8.15192 12.7678 2.56908
97 1 -1.1104 9.40238 8.6292 3.96216
98 2 2.2208 8.01643 9.95475 5.30488
99 1 -1.1104 9.48151 5.91745 1.13379
100 1 -1.1104 9.43154 11.4489 1.14725
102 1 -1.1104 9.52817 5.82758 3.87158
103 1 -1.1104 9.51517 11.342 3.84585
105 2 2.2208 13.6778 7.23449 2.49865
104 2 2.2208 13.71 12.826 2.47676
269 1 -1.1104 9.47903 5.78213 6.62724
375 2 2.2208 2.41457 21.1655 -0.332833
106 2 2.2208 5.21107 18.4071 5.23237
107 1 -1.1104 1.04531 14.2361 1.11003
109 1 -1.1104 1.07564 19.7602 1.14612
113 1 -1.1104 1.07946 14.2589 3.90169
114 1 -1.1104 1.09269 19.7224 3.92841
116 1 -1.1104 1.08935 16.931 1.00068
119 2 2.2208 5.34642 15.5711 2.37993
120 2 2.2208 5.27047 21.2158 2.51604
121 1 -1.1104 1.03738 16.9596 3.83134
123 1 -1.1104 3.72894 14.1527 1.1111
125 1 -1.1104 3.79883 19.679 0.931552
127 2 2.2208 2.48502 18.339 2.46147
128 1 -1.1104 3.86651 14.2614 3.82381
129 1 -1.1104 3.88755 19.8225 3.82308
130 2 2.2208 2.52712 15.6328 5.33337
131 2 2.2208 2.47115 21.1157 5.33067
132 1 -1.1104 3.93487 16.9605 1.0223
134 1 -1.1104 3.84456 17.0601 3.8778
115 1 -1.1104 6.70623 14.1596 3.91479
374 2 2.2208 5.33474 18.3477 -0.268051
122 1 -1.1104 6.66703 16.8847 3.76106
108 1 -1.1104 1.16115 14.2174 6.70602
112 1 -1.1104 6.70789 19.789 6.7
135 2 2.2208 -0.315587 15.6065 2.38933
124 1 -1.1104 3.85233 14.2146 6.64531
126 1 -1.1104 3.8766 19.783 6.64482
145 1 -1.1104 12.2865 19.6774 6.65348
110 1 -1.1104 6.61091 14.1893 1.13738
138 1 -1.1104 6.62546 19.8433 1.09085
204 2 2.2208 13.6986 15.7054 5.28063
139 1 -1.1104 6.66705 19.762 3.89087
140 1 -1.1104 6.75733 17.0078 0.942917
141 2 2.2208 10.9344 18.3644 5.26325
142 1 -1.1104 12.264 14.1843 1.10056
144 1 -1.1104 12.3153 19.7697 1.01551
146 1 -1.1104 12.3057 14.2111 3.88383
147 1 -1.1104 12.3633 19.7735 3.82313
148 1 -1.1104 12.3355 16.981 1.02116
150 2 2.2208 10.8322 15.7152 2.52319
151 2 2.2208 10.9788 21.1712 2.41293
152 1 -1.1104 12.2712 17.0138 3.84622
153 1 -1.1104 9.43739 14.2274 1.0658
155 1 -1.1104 9.48979 19.7468 0.971633
157 2 2.2208 8.12484 18.3676 2.41831
158 1 -1.1104 9.41692 14.2485 3.92795
159 1 -1.1104 9.50262 19.7735 3.77087
160 2 2.2208 8.08291 15.5459 5.34307
161 2 2.2208 8.05442 21.1279 5.2426
162 1 -1.1104 9.56368 17.0475 1.02302
164 1 -1.1104 9.41163 16.9386 3.87066
111 1 -1.1104 6.58113 14.2176 6.64929
149 1 -1.1104 12.2564 16.9947 6.7007
156 1 -1.1104 9.55512 19.7025 6.63426
165 2 2.2208 13.6992 18.3496 2.36042
231 2 2.2208 13.6777 21.1575 5.19757
166 1 -1.1104 0.991694 -2.56081 6.71931
173 1 -1.1104 3.87958 2.96097 6.70045
170 1 -1.1104 1.0209 0.206 6.62895
172 1 -1.1104 3.81871 -2.66872 6.73487
9029 2 2.2208 5.20966 -3.91351 10.8684
174 1 -1.1104 3.82139 0.125014 6.76096
9028 2 2.2208 2.44738 -4.01975 8.07586
167 1 -1.1104 1.13367 2.86635 6.65414
175 2 2.2208 5.28858 1.59395 10.9214
176 1 -1.1104 1.04584 -2.50265 12.2422
177 1 -1.1104 1.12451 2.98632 12.2402
180 1 -1.1104 1.06184 -2.57349 9.52616
181 1 -1.1104 0.994493 3.08685 9.42523
184 1 -1.1104 1.03607 0.237945 12.2939
186 2 2.2208 5.2149 -1.22283 8.03674
187 2 2.2208 5.27669 4.32376 8.15298
188 1 -1.1104 0.913347 0.277022 9.52744
190 1 -1.1104 3.84977 -2.48625 12.251
191 1 -1.1104 3.93949 3.0467 12.4485
192 2 2.2208 2.36302 1.56701 8.07809
193 1 -1.1104 3.82215 -2.50303 9.4257
194 1 -1.1104 3.82763 2.98594 9.63387
195 2 2.2208 2.46828 -1.11735 10.8733
196 2 2.2208 2.47051 4.42258 10.867
197 1 -1.1104 3.86333 0.282454 12.4057
198 1 -1.1104 3.79143 0.258772 9.56889
182 1 -1.1104 6.70462 -2.66555 9.44853
179 1 -1.1104 6.70442 2.87773 12.3137
185 1 -1.1104 6.77032 0.131339 12.2749
341 2 2.2208 5.22902 4.33867 13.7637
9031 2 2.2208 7.94526 -4.03714 8.04801
183 1 -1.1104 6.64621 2.92698 9.43627
189 1 -1.1104 6.59181 0.186555 9.60693
9032 2 2.2208 10.8135 -3.93423 10.8865
205 1 -1.1104 12.1542 -2.64446 6.57161
208 1 -1.1104 9.35433 -2.59262 6.60087
171 1 -1.1104 6.62348 0.250752 6.65463
207 1 -1.1104 12.2861 0.0540948 6.75644
210 1 -1.1104 9.39442 0.191001 6.64239
178 1 -1.1104 6.67694 -2.58666 12.2411
211 2 2.2208 10.8605 1.64027 10.8513
212 1 -1.1104 12.1807 -2.56407 12.2737
213 1 -1.1104 12.2828 2.9567 12.2498
214 1 -1.1104 12.1983 -2.59914 9.44531
215 1 -1.1104 12.2495 2.89768 9.50645
216 1 -1.1104 12.2346 0.156569 12.298
217 2 2.2208 10.8092 -1.19089 8.06293
218 2 2.2208 10.8285 4.42985 8.06165
219 1 -1.1104 12.1459 0.214048 9.48535
220 1 -1.1104 9.38206 -2.5932 12.3179
221 1 -1.1104 9.47554 3.03262 12.3928
222 2 2.2208 8.028 1.54202 8.17511
223 1 -1.1104 9.45099 -2.59631 9.54216
224 1 -1.1104 9.46669 3.03714 9.56432
225 2 2.2208 8.0006 -1.1947 10.8938
226 2 2.2208 8.12461 4.39784 10.9873
227 1 -1.1104 9.56107 0.236153 12.2681
228 1 -1.1104 9.33532 0.218596 9.47235
203 2 2.2208 13.6348 4.33807 10.7971
229 2 2.2208 13.6428 1.5149 8.0539
78 1 -1.1104 3.79351 11.3909 6.71029
239 1 -1.1104 3.8286 5.64813 6.77389
65 1 -1.1104 6.65255 11.4282 6.71738
240 2 2.2208 5.26691 7.12019 10.9197
241 2 2.2208 5.27298 12.8163 10.7882
242 1 -1.1104 1.06906 8.5573 12.2283
244 1 -1.1104 0.981544 8.58329 9.51223
246 1 -1.1104 1.07293 5.82846 12.2809
247 1 -1.1104 1.16458 11.3159 12.1873
250 2 2.2208 5.20548 10.0041 8.12718
251 1 -1.1104 1.03589 5.82192 9.483
252 1 -1.1104 1.09285 11.41 9.46497
255 1 -1.1104 3.87897 8.59092 12.2079
256 2 2.2208 2.49165 7.06528 8.13011
257 2 2.2208 2.51982 12.788 8.11555
258 1 -1.1104 3.81317 8.57869 9.54439
259 2 2.2208 2.46554 9.94757 10.8817
260 1 -1.1104 3.91075 5.85253 12.2935
261 1 -1.1104 3.90024 11.358 12.2771
262 1 -1.1104 3.90267 5.72139 9.5216
263 1 -1.1104 3.90105 11.4207 9.52485
353 2 2.2208 2.44394 12.7407 13.6272
245 1 -1.1104 6.64186 8.62402 9.47206
243 1 -1.1104 6.69062 8.54385 12.3367
29 2 2.2208 -0.346939 7.16424 10.8226
237 1 -1.1104 6.69686 5.71852 6.65957
249 1 -1.1104 6.67258 11.337 12.2542
254 1 -1.1104 6.75581 11.4591 9.40723
253 1 -1.1104 6.70523 5.84103 9.48227
52 2 2.2208 13.6868 10.0103 10.8808
266 1 -1.1104 12.3312 5.75152 6.66156
101 1 -1.1104 9.50432 11.4482 6.66313
53 2 2.2208 13.7301 12.7708 8.02494
248 1 -1.1104 6.73853 5.7804 12.3316
267 1 -1.1104 9.33108 8.59337 6.7062
265 1 -1.1104 12.2715 8.54189 6.66447
90 1 -1.1104 12.2975 11.3702 6.67051
264 1 -1.1104 9.49296 11.3092 9.47218
268 1 -1.1104 9.48269 5.80162 9.47489
270 1 -1.1104 9.56966 11.3652 12.3167
271 1 -1.1104 9.60428 5.70352 12.3124
272 2 2.2208 8.11897 10.0276 10.8782
273 1 -1.1104 9.50841 8.53325 9.44583
274 2 2.2208 8.10804 12.7821 8.00866
275 2 2.2208 8.05238 7.23219 8.01269
276 2 2.2208 10.8526 7.1449 10.8643
277 2 2.2208 11.0142 12.7179 10.8848
278 1 -1.1104 12.2412 8.58606 12.279
279 1 -1.1104 12.3101 8.62735 9.46782
280 1 -1.1104 12.2971 5.8488 12.2187
281 1 -1.1104 12.3836 11.4159 12.2732
282 2 2.2208 10.9442 10.0358 8.08682
283 1 -1.1104 12.2628 5.76092 9.40109
284 1 -1.1104 12.2574 11.3063 9.43228
285 1 -1.1104 9.45521 8.60044 12.3107
202 2 2.2208 13.6487 7.2286 8.01019
356 2 2.2208 8.08234 12.7481 13.6944
306 1 -1.1104 6.7089 16.9886 12.1655
302 1 -1.1104 1.0333 19.8054 6.75558
133 1 -1.1104 3.84599 17.0341 6.81047
359 2 2.2208 5.31441 15.4998 13.7445
288 1 -1.1104 6.78647 19.8433 9.46616
118 1 -1.1104 6.60658 16.9885 6.62161
312 2 2.2208 -0.30683 18.3425 10.9493
117 1 -1.1104 1.11895 17.0866 6.62136
305 1 -1.1104 3.91724 14.1748 9.44201
300 2 2.2208 5.30266 18.3807 10.8743
301 1 -1.1104 3.88402 19.7783 9.46373
304 1 -1.1104 3.88249 16.9992 9.51427
303 2 2.2208 2.48249 18.3507 8.18515
298 1 -1.1104 1.09668 19.7294 12.3041
310 2 2.2208 2.45712 15.5285 10.8398
295 2 2.2208 5.31979 15.6147 8.1294
309 2 2.2208 2.49023 21.1944 10.8597
308 1 -1.1104 3.92912 16.9427 12.3514
307 1 -1.1104 1.03111 16.8371 12.3729
299 1 -1.1104 1.1352 14.1996 12.2559
286 1 -1.1104 3.91253 19.7691 12.2986
287 1 -1.1104 3.96665 14.2063 12.28
291 1 -1.1104 1.07119 19.7481 9.46749
292 1 -1.1104 1.12514 16.9148 9.55494
293 2 2.2208 5.27735 21.2097 8.0249
294 1 -1.1104 1.02309 14.16 9.45053
289 1 -1.1104 6.67185 17.1149 9.46986
290 1 -1.1104 6.73999 14.1958 9.44992
358 2 2.2208 5.35695 21.0726 13.6192
321 1 -1.1104 9.46293 19.7544 12.2886
28 2 2.2208 13.8056 21.0624 10.8872
332 2 2.2208 13.6862 18.3436 8.05426
324 2 2.2208 10.9447 21.1611 8.09101
326 1 -1.1104 12.3417 16.9948 12.2791
322 1 -1.1104 9.45335 14.0779 12.2147
333 2 2.2208 13.6428 15.6413 10.82
325 2 2.2208 10.8983 15.5217 8.11036
317 2 2.2208 8.08704 15.5763 10.822
154 1 -1.1104 9.51892 14.1943 6.71316
163 1 -1.1104 9.4779 17.0008 6.70232
329 1 -1.1104 12.2345 19.6375 12.3336
297 1 -1.1104 6.63167 14.2148 12.3106
323 1 -1.1104 12.2991 16.9203 9.34638
316 2 2.2208 8.09977 21.1887 10.8128
296 1 -1.1104 6.77796 19.7183 12.2085
328 1 -1.1104 12.3482 14.1663 9.45543
314 1 -1.1104 9.50792 16.9584 9.50724
319 1 -1.1104 9.48125 14.1291 9.50392
320 2 2.2208 8.09673 18.4434 8.04468
315 1 -1.1104 9.44635 16.8809 12.2915
143 1 -1.1104 12.3792 14.1967 6.69304
318 1 -1.1104 9.49526 19.794 9.46966
330 1 -1.1104 12.343 14.1818 12.318
331 2 2.2208 10.8626 18.3851 10.859
327 1 -1.1104 12.2909 19.8069 9.4815
362 2 2.2208 8.09049 18.281 13.624
363 2 2.2208 13.7487 18.2638 13.6512
388 2 2.2208 5.2245 1.57381 16.4909
389 1 -1.1104 1.07482 -2.59683 17.7952
390 1 -1.1104 1.15345 2.94273 17.877
393 1 -1.1104 0.998921 -2.57407 14.9691
395 1 -1.1104 1.06376 3.047 15.1088
401 1 -1.1104 1.05367 0.197455 17.8352
403 2 2.2208 5.27742 -1.20713 19.2104
404 2 2.2208 5.32662 4.39596 19.2688
405 1 -1.1104 1.09841 0.232369 15.0628
409 1 -1.1104 3.83378 -2.65908 17.845
410 1 -1.1104 4.00138 3.01733 17.9226
411 2 2.2208 2.47168 1.62181 19.3313
412 1 -1.1104 3.78823 -2.656 15.1395
414 1 -1.1104 3.77086 2.94886 15.2167
416 2 2.2208 2.45743 -1.23913 16.4907
417 2 2.2208 2.47863 4.3503 16.5402
418 1 -1.1104 3.94026 0.163297 17.8377
419 1 -1.1104 3.8881 0.178346 15.0888
9189 2 2.2208 -0.367689 -3.99093 16.4439
9188 2 2.2208 5.20855 -4.03796 16.5735
397 1 -1.1104 6.66663 -2.60029 14.9963
402 1 -1.1104 6.72527 0.200692 17.9792
338 2 2.2208 5.27771 -1.16379 13.7091
9187 2 2.2208 2.41066 -4.04305 19.3281
334 2 2.2208 -0.323044 -1.21263 13.6618
339 2 2.2208 2.44725 1.6049 13.6944
413 1 -1.1104 3.93373 -2.63172 20.5987
427 2 2.2208 -0.29173 4.45293 19.2691
337 2 2.2208 -0.366123 4.414 13.6909
392 1 -1.1104 6.79941 2.96977 17.9271
407 1 -1.1104 6.76374 0.183101 15.1987
399 1 -1.1104 6.73439 2.99269 15.1913
9044 2 2.2208 13.6937 -3.95756 13.7642
391 1 -1.1104 6.6688 -2.66245 17.8756
431 2 2.2208 10.9135 1.63524 16.5359
432 1 -1.1104 12.2596 -2.52392 17.87
433 1 -1.1104 12.3298 3.04861 17.9885
434 1 -1.1104 12.3031 -2.56301 15.0924
436 1 -1.1104 12.2658 3.0525 15.1497
438 1 -1.1104 12.2341 0.284773 17.9405
439 2 2.2208 10.7943 -1.18491 19.2654
440 2 2.2208 10.8408 4.3252 19.3738
441 1 -1.1104 12.3897 0.36093 15.0874
443 1 -1.1104 9.47517 -2.65892 17.8311
444 1 -1.1104 9.51975 2.94613 17.9768
445 2 2.2208 8.03242 1.57326 19.298
446 1 -1.1104 9.57341 -2.61023 15.0446
448 1 -1.1104 9.59465 3.09796 15.0948
450 2 2.2208 8.09318 -1.2823 16.4488
451 2 2.2208 8.14093 4.37819 16.4825
452 1 -1.1104 9.49711 0.169338 17.872
453 1 -1.1104 9.51427 0.184359 15.159
343 2 2.2208 8.19576 1.54284 13.6897
437 1 -1.1104 12.2522 2.96048 20.7863
9157 2 2.2208 7.98822 -4.02887 19.3936
350 2 2.2208 11.0366 4.34795 13.6629
9045 2 2.2208 8.00018 -4.0631 13.7407
429 2 2.2208 13.7646 4.37765 16.5304
428 2 2.2208 13.6145 1.59147 19.3277
346 2 2.2208 10.8889 -1.18594 13.652
464 2 2.2208 5.31505 7.18571 16.5456
465 2 2.2208 5.28816 12.683 16.3782
466 1 -1.1104 1.00751 8.56213 17.857
468 1 -1.1104 1.15077 8.69555 15.0629
472 1 -1.1104 1.11822 5.78434 17.8865
473 1 -1.1104 1.05816 11.3959 17.9302
476 2 2.2208 5.35219 9.95628 19.3056
477 1 -1.1104 1.09736 5.83414 15.0494
479 1 -1.1104 1.0849 11.5034 15.0581
485 1 -1.1104 3.86925 8.59742 17.8902
486 2 2.2208 2.51393 7.20587 19.2028
487 2 2.2208 2.5367 12.7363 19.2962
488 1 -1.1104 3.96697 8.5805 15.1204
490 2 2.2208 2.45912 10.0018 16.415
491 1 -1.1104 3.89939 5.83197 17.9181
492 1 -1.1104 3.96919 11.396 17.7251
493 1 -1.1104 3.87312 5.8045 15.0612
495 1 -1.1104 3.81175 11.341 14.9872
351 2 2.2208 2.53909 7.27268 13.6651
481 1 -1.1104 6.70016 5.7799 15.1113
470 1 -1.1104 6.7313 8.48537 15.0782
467 1 -1.1104 6.65135 8.53689 17.9421
475 1 -1.1104 6.69032 11.2327 17.8032
352 2 2.2208 5.30758 9.94695 13.6633
489 1 -1.1104 3.89016 8.58553 20.6694
480 1 -1.1104 1.1201 11.4045 20.6549
354 2 2.2208 8.08306 7.22886 13.6996
355 2 2.2208 10.8634 9.98647 13.7182
474 1 -1.1104 6.67088 5.80351 17.8921
483 1 -1.1104 6.68878 11.3083 15.0015
482 1 -1.1104 6.67743 5.83291 20.6492
500 2 2.2208 10.8981 7.21839 16.4076
501 2 2.2208 10.9304 12.755 16.4602
502 1 -1.1104 12.2581 8.6473 17.8712
503 1 -1.1104 12.3476 8.61882 15.0198
505 1 -1.1104 12.3052 5.7892 17.8802
506 1 -1.1104 12.1804 11.4896 17.9127
507 2 2.2208 10.8904 10.0083 19.2861
508 1 -1.1104 12.3431 5.87254 15.0302
510 1 -1.1104 12.2769 11.4537 15.1218
512 1 -1.1104 9.5413 8.63155 17.8694
513 2 2.2208 8.14199 7.2678 19.3222
514 2 2.2208 8.00925 12.6404 19.2315
515 1 -1.1104 9.50335 8.62444 15.0665
517 2 2.2208 8.09391 9.92811 16.4768
518 1 -1.1104 9.48123 5.7723 17.8715
519 1 -1.1104 9.4153 11.3082 17.9643
520 1 -1.1104 9.48232 5.90185 15.012
522 1 -1.1104 9.51512 11.3101 15.103
650 2 2.2208 13.6937 12.7498 19.3757
471 1 -1.1104 6.68178 8.62952 20.6846
651 2 2.2208 13.6816 7.23118 19.2936
504 1 -1.1104 12.1634 8.61907 20.7357
523 1 -1.1104 9.56461 11.4213 20.7201
336 2 2.2208 13.7315 7.2585 13.6339
527 2 2.2208 5.27735 18.2683 16.4917
528 1 -1.1104 1.09414 14.1243 17.9455
529 1 -1.1104 1.08925 19.8043 17.8256
532 1 -1.1104 1.12903 14.1795 15.0972
534 1 -1.1104 1.18009 19.5918 15.0964
540 1 -1.1104 1.0774 16.9613 17.9456
542 2 2.2208 5.24748 15.5177 19.2931
543 2 2.2208 5.25358 21.1471 19.3143
544 1 -1.1104 1.10709 16.9187 15.1542
548 1 -1.1104 3.87254 14.1706 17.9988
549 1 -1.1104 3.90167 19.7801 17.9865
550 2 2.2208 2.48625 18.3317 19.283
551 1 -1.1104 3.84079 14.0823 15.1017
553 1 -1.1104 3.95034 19.7392 15.1499
555 2 2.2208 2.5347 15.5432 16.5407
556 2 2.2208 2.48018 21.0816 16.3916
557 1 -1.1104 3.8747 16.962 17.9206
558 1 -1.1104 3.96267 16.8561 15.1209
541 1 -1.1104 6.63834 16.883 17.8181
545 1 -1.1104 1.01872 17.0822 20.6818
533 1 -1.1104 0.912787 14.1838 20.751
536 1 -1.1104 6.77245 14.135 15.071
458 2 2.2208 -0.373581 21.235 19.2013
559 1 -1.1104 3.90985 16.9471 20.7801
552 1 -1.1104 3.80809 14.1274 20.6855
335 2 2.2208 -0.30348 21.1242 13.6504
357 2 2.2208 2.49502 18.2687 13.6441
342 2 2.2208 -0.268544 15.5815 13.6961
530 1 -1.1104 6.67598 14.0679 17.8541
546 1 -1.1104 6.78752 16.9096 15.043
539 1 -1.1104 6.63461 19.8125 20.7182
538 1 -1.1104 6.66711 19.7618 15.1236
531 1 -1.1104 6.68266 19.7699 17.9773
563 2 2.2208 10.9186 18.3887 16.3685
564 1 -1.1104 12.2683 14.2 17.8965
565 1 -1.1104 12.2307 19.7867 17.8731
566 1 -1.1104 12.2689 14.2546 15.0718
568 1 -1.1104 12.3834 19.8252 15.053
570 1 -1.1104 12.1936 16.9033 17.9153
571 2 2.2208 10.8482 15.5449 19.2305
572 2 2.2208 10.8303 21.1273 19.1938
573 1 -1.1104 12.2945 17.0076 15.145
575 1 -1.1104 9.49918 14.162 17.8484
576 1 -1.1104 9.36805 19.7176 17.8757
577 2 2.2208 8.01266 18.3463 19.2658
578 1 -1.1104 9.52661 14.1852 15.0142
580 1 -1.1104 9.55137 19.7919 15.0961
582 2 2.2208 8.0457 15.5931 16.4929
583 2 2.2208 8.03683 21.1409 16.4595
584 1 -1.1104 9.36492 16.9628 17.8557
585 1 -1.1104 9.48521 16.9348 15.1021
579 1 -1.1104 9.31573 14.1951 20.635
586 1 -1.1104 9.47866 16.9512 20.6532
618 2 2.2208 13.6135 18.3429 19.2387
569 1 -1.1104 12.2368 19.7451 20.5209
574 1 -1.1104 12.3093 16.9541 20.6936
537 1 -1.1104 6.52326 14.1162 20.706
581 1 -1.1104 9.42047 19.7614 20.7073
619 2 2.2208 13.6172 15.525 16.4655
460 2 2.2208 13.6675 21.1332 16.4507
360 2 2.2208 10.8585 21.1721 13.7069
361 2 2.2208 10.8561 15.5143 13.6873
420 1 -1.1104 3.8175 0.150355 20.5969
408 1 -1.1104 6.65915 0.176978 20.8246
9122 2 2.2208 5.21038 -3.96013 22.1514
9156 2 2.2208 -0.365594 -3.96519 22.1415
406 1 -1.1104 1.00679 0.270601 20.6779
394 1 -1.1104 1.15464 -2.56697 20.6905
396 1 -1.1104 1.1055 3.22956 20.6759
415 1 -1.1104 3.93711 3.04556 20.7138
591 2 2.2208 5.27358 1.59432 22.0903
592 1 -1.1104 1.05569 -2.59336 23.554
593 1 -1.1104 1.07716 2.99376 23.4504
596 1 -1.1104 1.1413 -2.55943 26.3944
597 1 -1.1104 1.02178 3.04454 26.2813
600 1 -1.1104 1.04371 0.157937 23.4935
602 2 2.2208 5.21394 -1.29302 24.8991
603 2 2.2208 5.27579 4.37895 24.9455
604 1 -1.1104 1.04804 0.237942 26.3318
606 1 -1.1104 3.7962 -2.58915 23.3957
607 1 -1.1104 3.86829 2.96422 23.5662
608 2 2.2208 2.45661 1.67497 24.955
609 1 -1.1104 3.87456 -2.62662 26.1877
610 1 -1.1104 3.98968 3.06262 26.3378
611 2 2.2208 2.46237 -1.23479 22.0519
612 2 2.2208 2.53096 4.4478 22.1422
613 1 -1.1104 3.78628 0.158358 23.4511
614 1 -1.1104 3.80368 0.206798 26.2334
599 1 -1.1104 6.70797 2.93606 26.3413
605 1 -1.1104 6.53819 0.270385 26.1932
598 1 -1.1104 6.64089 -2.60211 26.2226
594 1 -1.1104 6.60903 -2.65726 23.4561
601 1 -1.1104 6.65599 0.100989 23.5844
9043 2 2.2208 -0.352658 -3.9261 27.6284
454 1 -1.1104 9.46642 0.258152 20.6844
9118 2 2.2208 8.01285 -3.96594 24.9284
447 1 -1.1104 9.44493 -2.70674 20.7635
449 1 -1.1104 9.47679 3.0522 20.7603
400 1 -1.1104 6.73922 2.96408 20.7482
423 2 2.2208 13.6149 4.43576 22.1922
653 2 2.2208 13.6028 -1.1397 22.0565
595 1 -1.1104 6.67933 2.96546 23.4811
435 1 -1.1104 12.2203 -2.59094 20.6109
442 1 -1.1104 12.1925 0.121084 20.7925
398 1 -1.1104 6.59462 -2.58883 20.6819
627 2 2.2208 10.8224 1.64403 22.1418
628 1 -1.1104 12.253 -2.59692 23.5506
629 1 -1.1104 12.2389 3.0144 23.5792
630 1 -1.1104 12.2444 -2.57458 26.3454
631 1 -1.1104 12.2825 2.8647 26.337
632 1 -1.1104 12.1645 0.237252 23.5696
633 2 2.2208 10.8364 -1.20668 24.851
634 2 2.2208 10.8236 4.42206 25.0196
635 1 -1.1104 12.1788 0.193771 26.3734
636 1 -1.1104 9.46086 -2.58383 23.5151
637 1 -1.1104 9.36578 3.02627 23.4835
638 2 2.2208 8.00592 1.59507 24.8744
639 1 -1.1104 9.425 -2.5578 26.2722
640 1 -1.1104 9.58234 3.11139 26.4159
641 2 2.2208 8.0922 -1.20933 22.1656
642 2 2.2208 7.98937 4.40345 22.1023
643 1 -1.1104 9.38241 0.208627 23.5216
644 1 -1.1104 9.34799 0.159971 26.3416
372 2 2.2208 8.08597 4.50329 27.7576
494 1 -1.1104 3.87206 5.76 20.6906
684 2 2.2208 -0.326771 10.0242 24.8259
469 1 -1.1104 1.08008 8.66729 20.6836
496 1 -1.1104 3.92448 11.3392 20.7253
478 1 -1.1104 1.0918 5.88715 20.6912
656 2 2.2208 5.22687 7.2553 22.1055
657 2 2.2208 5.30285 12.7153 22.1035
658 1 -1.1104 1.11358 8.5815 23.5396
660 1 -1.1104 1.11529 8.67798 26.3142
662 1 -1.1104 1.04867 5.80712 23.4709
663 1 -1.1104 1.04254 11.4255 23.5554
666 2 2.2208 5.25238 10.0393 24.8601
667 1 -1.1104 1.17657 5.84527 26.2991
668 1 -1.1104 1.09069 11.467 26.2605
671 1 -1.1104 3.80019 8.69519 23.4814
672 2 2.2208 2.48311 7.28941 24.887
673 2 2.2208 2.42671 12.8436 24.946
674 1 -1.1104 3.89852 8.66705 26.3524
675 2 2.2208 2.40874 10.0518 22.0972
676 1 -1.1104 3.88454 5.79991 23.5002
677 1 -1.1104 3.87183 11.4362 23.5054
678 1 -1.1104 3.94873 5.8375 26.333
679 1 -1.1104 3.86688 11.4307 26.2629
670 1 -1.1104 6.65497 11.3526 26.2798
661 1 -1.1104 6.64832 8.54079 26.2253
382 2 2.2208 -0.320396 12.8162 27.6591
659 1 -1.1104 6.65109 8.59779 23.5219
669 1 -1.1104 6.77525 5.68073 26.2589
383 2 2.2208 -0.251196 7.25151 27.6715
380 2 2.2208 2.44192 10.0302 27.6257
516 1 -1.1104 9.49101 8.71143 20.774
521 1 -1.1104 9.44427 5.88214 20.7024
422 2 2.2208 13.6877 9.97937 22.176
384 2 2.2208 10.8442 7.30155 27.7651
484 1 -1.1104 6.73386 11.3519 20.7142
664 1 -1.1104 6.59967 5.87898 23.4305
511 1 -1.1104 12.3441 11.3837 20.7188
509 1 -1.1104 12.2228 5.77777 20.8194
665 1 -1.1104 6.71297 11.3624 23.5305
687 1 -1.1104 9.56409 11.3931 26.4054
688 1 -1.1104 9.4604 5.93314 26.3989
689 1 -1.1104 9.53444 11.4052 23.6776
690 1 -1.1104 9.50563 5.84308 23.5163
691 2 2.2208 8.06339 9.96567 22.1629
692 1 -1.1104 9.47428 8.60584 26.3005
693 2 2.2208 8.02558 12.7819 24.9349
694 2 2.2208 8.14785 7.22202 24.9526
695 2 2.2208 10.8983 7.18782 22.1641
696 2 2.2208 10.9493 12.7596 22.0704
697 1 -1.1104 12.3433 8.65766 23.5553
698 1 -1.1104 12.2655 8.67752 26.3605
699 1 -1.1104 12.312 5.83657 23.6535
700 1 -1.1104 12.3199 11.4589 23.5879
701 2 2.2208 10.9071 10.0047 24.9256
702 1 -1.1104 12.2097 5.81044 26.4182
703 1 -1.1104 12.335 11.4557 26.4334
704 1 -1.1104 9.47172 8.54988 23.5454
385 2 2.2208 8.10246 9.95845 27.7269
535 1 -1.1104 0.979531 19.7702 20.6671
554 1 -1.1104 3.77318 19.7267 20.7355
623 2 2.2208 -0.39386 18.4096 22.0585
373 2 2.2208 2.4777 15.6474 27.5923
647 2 2.2208 2.40926 15.5383 22.1161
649 2 2.2208 2.39947 21.1471 22.0879
652 1 -1.1104 3.76209 16.9543 23.517
655 1 -1.1104 1.02029 17.0274 23.4739
681 1 -1.1104 3.83586 14.1607 26.3327
682 1 -1.1104 3.96695 16.9634 26.2537
683 2 2.2208 2.37646 18.3185 24.8724
686 1 -1.1104 3.86244 19.7452 26.2475
705 2 2.2208 5.2079 18.3181 22.0707
706 1 -1.1104 1.12727 14.2175 23.4697
707 1 -1.1104 1.04519 19.8545 23.4845
711 1 -1.1104 3.92829 19.6965 23.4453
713 1 -1.1104 3.85877 14.2556 23.5387
715 1 -1.1104 1.09644 19.7481 26.2625
716 1 -1.1104 0.966385 17.0303 26.2679
717 1 -1.1104 1.01417 14.2942 26.2702
719 2 2.2208 5.23299 21.1232 24.8166
720 2 2.2208 5.20923 15.68 24.8903
680 1 -1.1104 6.68728 16.9996 23.4651
709 1 -1.1104 6.64129 14.1896 23.5631
547 1 -1.1104 6.65025 16.8845 20.619
645 2 2.2208 -0.284164 21.1816 24.9413
525 2 2.2208 10.9895 15.5891 24.7663
561 1 -1.1104 9.46506 14.1648 23.4226
567 1 -1.1104 12.1407 14.1407 20.5874
461 2 2.2208 13.6513 21.203 22.0187
463 1 -1.1104 12.2582 14.1835 23.4377
590 1 -1.1104 9.5046 19.6619 26.287
620 1 -1.1104 9.5489 16.9332 26.2389
587 2 2.2208 8.10479 18.2834 24.7748
617 1 -1.1104 9.53453 16.8443 23.4456
616 2 2.2208 8.02361 21.1603 22.0843
524 1 -1.1104 12.3807 17.0138 23.4971
560 1 -1.1104 12.3711 17.0177 26.1969
499 1 -1.1104 12.3209 19.7875 26.2402
462 2 2.2208 10.846 18.3667 22.0451
562 1 -1.1104 9.52101 19.7831 23.5242
497 1 -1.1104 12.1769 19.7497 23.3385
589 1 -1.1104 9.46502 14.1756 26.2296
714 1 -1.1104 6.70902 16.956 26.1616
712 1 -1.1104 6.66587 14.1647 26.4052
615 2 2.2208 8.05535 15.4834 22.0009
498 1 -1.1104 12.2977 14.3212 26.3156
718 1 -1.1104 6.76317 19.7689 23.389
588 1 -1.1104 6.70856 19.7116 26.1958
526 2 2.2208 10.9311 21.1757 24.7981
348 2 2.2208 10.9333 18.3889 27.6186
344 2 2.2208 13.7119 15.5895 27.6317
347 2 2.2208 8.18549 15.5395 27.6116
349 2 2.2208 8.06131 21.1562 27.5792
721 2 2.2208 5.25639 23.978 5.26766
722 2 2.2208 5.35812 29.3919 5.23438
723 1 -1.1104 1.07083 25.3665 1.02708
724 1 -1.1104 1.13995 25.3721 3.83469
725 1 -1.1104 1.05675 22.5539 1.06008
726 1 -1.1104 1.03876 28.173 1.10377
727 2 2.2208 5.29584 26.7224 2.38204
728 1 -1.1104 1.05481 22.4927 3.98427
729 1 -1.1104 1.01802 28.1647 4.04268
730 1 -1.1104 3.86198 25.3324 0.935521
731 2 2.2208 2.44974 23.8992 2.47777
732 2 2.2208 2.47246 29.5295 2.44073
733 1 -1.1104 3.89445 25.3403 3.84312
734 2 2.2208 2.53152 26.7534 5.26925
735 1 -1.1104 3.84485 22.5383 1.0517
736 1 -1.1104 3.98839 28.1479 0.966772
737 1 -1.1104 3.7828 22.5492 3.94809
738 1 -1.1104 3.90712 28.0762 3.71848
862 1 -1.1104 1.11436 25.3855 6.68104
867 1 -1.1104 6.78006 28.0821 6.65081
745 1 -1.1104 6.73624 28.1699 0.924993
1068 2 2.2208 5.32918 24.0062 -0.357723
742 1 -1.1104 6.66347 25.3663 1.05314
747 1 -1.1104 6.73135 28.154 3.81122
863 1 -1.1104 6.70392 25.3653 6.59863
1067 2 2.2208 -0.318029 23.9791 -0.315538
870 1 -1.1104 3.93964 28.0713 6.54307
869 1 -1.1104 3.95257 22.5338 6.69644
864 1 -1.1104 1.13893 22.5945 6.72928
1072 2 2.2208 5.27729 29.5121 -0.381121
744 1 -1.1104 6.75518 22.5334 1.07993
746 1 -1.1104 6.61113 22.6135 3.86304
743 1 -1.1104 6.64979 25.291 3.82296
748 2 2.2208 10.8992 23.8969 5.19427
749 2 2.2208 10.9194 29.6197 5.27089
750 1 -1.1104 12.3083 25.2697 1.14316
751 1 -1.1104 12.3138 25.2623 3.84876
752 1 -1.1104 12.3102 22.5211 0.870967
753 1 -1.1104 12.28 28.0518 1.04278
754 2 2.2208 10.8675 26.7599 2.37963
755 1 -1.1104 12.2681 22.5102 3.78528
756 1 -1.1104 12.2126 27.9987 3.86426
757 1 -1.1104 9.47675 25.3718 1.03405
758 2 2.2208 8.09228 23.8957 2.41808
759 2 2.2208 8.02364 29.5527 2.48096
760 1 -1.1104 9.47609 25.3622 3.78288
761 2 2.2208 8.20254 26.7082 5.17613
762 1 -1.1104 9.53123 22.5535 0.953484
763 1 -1.1104 9.58285 28.0719 0.90353
764 1 -1.1104 9.4705 22.5213 3.76953
765 1 -1.1104 9.48758 28.1821 3.70013
899 1 -1.1104 9.40916 22.5594 6.5447
898 1 -1.1104 9.5974 25.3195 6.61073
896 1 -1.1104 12.2928 22.5058 6.5057
767 2 2.2208 13.6353 29.5336 2.45036
1075 2 2.2208 8.09614 26.7412 -0.363001
900 1 -1.1104 9.57943 28.0862 6.5436
768 2 2.2208 13.7172 26.7272 5.33986
769 2 2.2208 5.24958 35.1528 5.27898
770 1 -1.1104 1.05486 30.9239 1.13733
771 1 -1.1104 1.01258 36.5313 1.07422
773 1 -1.1104 1.07859 30.9724 3.94014
774 1 -1.1104 1.01742 36.4748 3.88537
776 1 -1.1104 1.00463 33.7469 1.0473
777 2 2.2208 5.21549 32.3037 2.50712
778 2 2.2208 5.23488 38.0259 2.49358
779 1 -1.1104 1.23936 33.6897 3.92254
781 1 -1.1104 3.72272 30.9411 1.07719
782 1 -1.1104 3.75242 36.5563 1.06258
783 2 2.2208 2.46427 35.1456 2.40009
784 1 -1.1104 3.89438 30.8856 3.88519
785 1 -1.1104 3.87527 36.5997 3.87162
786 2 2.2208 2.51997 32.3014 5.31439
787 2 2.2208 2.42723 37.9917 5.27542
788 1 -1.1104 3.79211 33.7713 0.924033
789 1 -1.1104 3.89678 33.7832 3.82599
919 1 -1.1104 1.06409 30.9319 6.66188
921 1 -1.1104 6.70804 30.8161 6.57757
794 1 -1.1104 6.6314 30.9312 3.85667
775 1 -1.1104 6.69189 36.634 3.85574
793 1 -1.1104 6.45679 30.9575 1.05911
780 1 -1.1104 6.72647 33.7323 3.95239
795 1 -1.1104 6.64208 33.7426 1.05504
772 1 -1.1104 6.6015 36.5542 1.14981
1080 2 2.2208 5.24581 35.2215 -0.260992
926 1 -1.1104 3.87454 36.5748 6.61748
1078 2 2.2208 2.43317 37.9626 -0.255644
924 1 -1.1104 6.57535 33.6325 6.6097
796 2 2.2208 10.99 35.126 5.30587
797 1 -1.1104 12.276 30.8732 1.01095
798 1 -1.1104 12.2518 36.43 0.992897
799 1 -1.1104 12.3281 30.8908 3.85313
800 1 -1.1104 12.315 36.527 3.81133
801 1 -1.1104 12.2076 33.6703 0.944788
802 2 2.2208 10.8712 32.3426 2.52995
803 2 2.2208 10.7802 37.8937 2.50062
804 1 -1.1104 12.2231 33.7096 3.89893
805 1 -1.1104 9.50056 30.9137 1.21988
806 1 -1.1104 9.45619 36.4681 1.01961