ITEM: TIMESTEP
100000
ITEM: NUMBER OF ATOMS
17760
ITEM: BOX BOUNDS pp pp pp
-3.3920261867527030e-01 2.7679202618675117e+01
-4.0269943942514779e+00 3.3210699439425196e+02
-3.2917761034563242e-01 2.7669177610345340e+01
ITEM: ATOMS id type q x y z
1 2 2.2208 5.23699 1.50599 5.22176
2 1 -1.1104 1.07151 -2.58452 0.947045
3 1 -1.1104 1.06003 2.93589 1.02669
6 1 -1.1104 1.05978 -2.50656 3.75014
7 1 -1.1104 0.995389 3.0134 3.79616
10 1 -1.1104 0.922491 0.24063 1.06302
12 2 2.2208 5.27308 -1.26437 2.44712
13 2 2.2208 5.19733 4.40064 2.45306
14 1 -1.1104 0.976353 0.271184 3.87102
16 1 -1.1104 3.82987 -2.63591 1.01775
17 1 -1.1104 3.80998 2.95142 1.03148
18 2 2.2208 2.3307 1.53272 2.40088
19 1 -1.1104 3.84223 -2.6369 3.84132
20 1 -1.1104 3.71025 2.93251 3.84918
21 2 2.2208 2.4266 -1.19914 5.28932
22 2 2.2208 2.45403 4.43351 5.25658
23 1 -1.1104 3.77154 0.180136 1.06367
24 1 -1.1104 3.72171 0.0866116 3.87507
9022 2 2.2208 2.46076 -3.97062 2.39512
333 2 2.2208 13.7 15.4888 10.8838
4 1 -1.1104 6.68535 -2.62136 0.997474
9023 2 2.2208 5.17053 -3.98638 5.34051
29 2 2.2208 -0.331033 7.18211 10.7703
8 1 -1.1104 6.63485 -2.6109 3.82838
9024 2 2.2208 -0.316161 -3.99475 5.11905
172 1 -1.1104 3.89045 -2.5148 6.75862
167 1 -1.1104 0.975035 3.05733 6.61298
166 1 -1.1104 1.07508 -2.59125 6.66315
52 2 2.2208 13.5808 9.92061 10.7843
11 1 -1.1104 6.59389 0.183989 1.0773
15 1 -1.1104 6.69838 0.207924 3.7807
5 1 -1.1104 6.60708 3.07074 1.01877
9 1 -1.1104 6.5942 3.03054 3.82178
31 2 2.2208 10.7875 1.56479 5.14123
32 1 -1.1104 12.2629 -2.52549 0.95459
33 1 -1.1104 12.1858 3.14376 0.915218
34 1 -1.1104 12.2987 -2.61695 3.75798
35 1 -1.1104 12.1341 2.90397 3.73944
36 1 -1.1104 12.3375 0.271925 0.895092
37 2 2.2208 10.9149 -1.26516 2.35621
38 2 2.2208 10.757 4.33724 2.40947
39 1 -1.1104 12.3626 0.136798 3.74367
40 1 -1.1104 9.48958 -2.6696 0.923281
41 1 -1.1104 9.37659 3.03677 0.898703
42 2 2.2208 7.9828 1.59612 2.41901
43 1 -1.1104 9.54551 -2.65631 3.75346
44 1 -1.1104 9.34911 2.96889 3.66929
45 2 2.2208 8.07355 -1.25841 5.17038
46 2 2.2208 8.02187 4.41278 5.23907
47 1 -1.1104 9.46441 0.220257 0.960046
48 1 -1.1104 9.45593 0.189869 3.76615
9025 2 2.2208 8.09574 -4.05846 2.36811
229 2 2.2208 13.672 1.49421 7.95078
135 2 2.2208 -0.369083 15.5623 2.49453
50 2 2.2208 13.7113 -1.20073 5.10962
9026 2 2.2208 10.8877 -4.0409 5.12728
370 2 2.2208 8.12028 -1.14223 -0.43819
319 1 -1.1104 9.44642 13.9576 9.45282
208 1 -1.1104 9.41402 -2.55234 6.56705
54 2 2.2208 5.20249 7.21921 5.22351
55 2 2.2208 5.26084 12.7271 5.26727
56 1 -1.1104 1.01846 8.60247 1.01225
58 1 -1.1104 0.958499 8.60742 3.87119
60 1 -1.1104 1.07226 5.79506 0.975725
61 1 -1.1104 1.05775 11.3857 1.05994
66 2 2.2208 5.24931 9.88795 2.38456
67 1 -1.1104 1.02345 5.80243 3.79913
68 1 -1.1104 1.12984 11.492 3.82461
71 1 -1.1104 3.89696 8.56205 1.02805
72 2 2.2208 2.337 7.11833 2.43421
73 2 2.2208 2.52009 12.8224 2.43653
74 1 -1.1104 3.83818 8.53015 3.76549
75 2 2.2208 2.44668 10.0022 5.14573
76 1 -1.1104 3.83571 5.74825 1.05604
77 1 -1.1104 3.95141 11.4852 0.988535
79 1 -1.1104 3.81515 5.76375 3.85609
80 1 -1.1104 3.83125 11.371 3.68029
233 2 2.2208 13.6556 4.38396 5.12258
57 1 -1.1104 6.76562 8.52912 0.967548
70 1 -1.1104 6.58981 11.3917 3.74866
239 1 -1.1104 3.80548 5.79867 6.59426
64 1 -1.1104 6.67319 11.3318 0.973861
63 1 -1.1104 6.60958 5.83335 1.0999
330 1 -1.1104 12.1882 14.1386 12.3444
316 2 2.2208 8.07028 21.1015 10.8767
237 1 -1.1104 6.57499 5.78067 6.68363
59 1 -1.1104 6.66384 8.54263 3.8018
69 1 -1.1104 6.59903 5.75261 3.96923
84 2 2.2208 10.9276 7.2056 5.18514
85 2 2.2208 10.9074 12.6705 5.26407
86 1 -1.1104 12.3589 8.65553 0.967901
87 1 -1.1104 12.1814 8.60228 3.8481
88 1 -1.1104 12.234 5.91633 0.922267
89 1 -1.1104 12.2914 11.3865 0.945242
91 2 2.2208 10.908 9.98386 2.41747
92 1 -1.1104 12.1738 5.73508 3.72125
93 1 -1.1104 12.2649 11.3967 3.74109
94 1 -1.1104 9.58532 8.62578 1.01664
95 2 2.2208 8.09083 7.16345 2.47507
96 2 2.2208 8.0269 12.7265 2.31817
97 1 -1.1104 9.44281 8.62325 3.78081
98 2 2.2208 8.00594 9.96649 5.12391
99 1 -1.1104 9.44241 5.79528 1.05346
100 1 -1.1104 9.47723 11.381 1.05817
102 1 -1.1104 9.42897 5.7324 3.74867
103 1 -1.1104 9.41568 11.4539 3.88075
323 1 -1.1104 12.3505 16.9 9.46693
90 1 -1.1104 12.2924 11.3653 6.64982
101 1 -1.1104 9.56704 11.2842 6.6249
265 1 -1.1104 12.2789 8.67288 6.65803
154 1 -1.1104 9.61384 14.1587 6.63315
331 2 2.2208 10.826 18.2403 10.8986
106 2 2.2208 5.26613 18.3217 5.29063
107 1 -1.1104 1.20127 14.2374 1.12865
109 1 -1.1104 1.06531 19.7792 1.1859
113 1 -1.1104 1.06414 14.291 3.88333
114 1 -1.1104 1.12148 19.6981 3.96691
116 1 -1.1104 1.03666 17.0017 1.08172
119 2 2.2208 5.30679 15.6184 2.425
120 2 2.2208 5.2332 21.1509 2.54877
121 1 -1.1104 1.12757 16.9955 3.87005
123 1 -1.1104 3.87595 14.1822 0.961722
125 1 -1.1104 3.82323 19.6692 1.03013
127 2 2.2208 2.42855 18.4448 2.57576
128 1 -1.1104 3.87469 14.1524 3.92732
129 1 -1.1104 3.92541 19.7881 3.82608
130 2 2.2208 2.56947 15.5732 5.26123
131 2 2.2208 2.48905 21.1285 5.3605
132 1 -1.1104 3.90194 16.9569 1.11188
134 1 -1.1104 3.89872 17.0032 3.81325
122 1 -1.1104 6.70519 16.9747 3.77993
133 1 -1.1104 3.85957 17.0252 6.63287
124 1 -1.1104 3.97376 14.2432 6.71711
110 1 -1.1104 6.6878 14.2041 0.969312
140 1 -1.1104 6.68666 17.0097 0.965762
118 1 -1.1104 6.6254 16.8089 6.75522
375 2 2.2208 2.51777 21.1283 -0.269338
138 1 -1.1104 6.58812 19.9071 0.966653
115 1 -1.1104 6.6279 14.2581 3.94839
117 1 -1.1104 1.11916 17.044 6.67904
111 1 -1.1104 6.67729 14.0811 6.64903
315 1 -1.1104 9.48926 16.9011 12.4136
374 2 2.2208 5.31136 18.3411 -0.361965
349 2 2.2208 8.01979 21.2643 -0.327465
288 1 -1.1104 6.59059 19.7012 9.58215
149 1 -1.1104 12.2796 16.9455 6.64393
139 1 -1.1104 6.66402 19.7282 3.81616
141 2 2.2208 10.8777 18.3425 5.30833
142 1 -1.1104 12.2762 14.18 1.10114
144 1 -1.1104 12.2432 19.6415 1.11828
146 1 -1.1104 12.3577 14.1107 3.90233
147 1 -1.1104 12.3215 19.7196 3.82831
148 1 -1.1104 12.1977 16.8089 1.081
150 2 2.2208 10.8346 15.4943 2.4543
151 2 2.2208 10.9396 21.0781 2.46049
152 1 -1.1104 12.264 16.9106 3.85402
153 1 -1.1104 9.47119 14.1447 0.959488
155 1 -1.1104 9.39829 19.774 1.11156
157 2 2.2208 8.10163 18.2863 2.38655
158 1 -1.1104 9.45422 14.1171 3.79092
159 1 -1.1104 9.59481 19.7184 3.8294
160 2 2.2208 8.11781 15.5036 5.16548
161 2 2.2208 8.09094 21.1249 5.25134
162 1 -1.1104 9.38728 16.9914 1.02049
164 1 -1.1104 9.52113 16.9224 3.76754
163 1 -1.1104 9.35248 16.9532 6.72526
143 1 -1.1104 12.2956 14.1872 6.61711
145 1 -1.1104 12.2725 19.7016 6.70112
156 1 -1.1104 9.51486 19.758 6.66127
112 1 -1.1104 6.51829 19.7133 6.74083
174 1 -1.1104 3.91197 0.199172 6.70503
290 1 -1.1104 6.65642 14.2009 9.5312
9028 2 2.2208 2.46601 -3.91143 8.08681
306 1 -1.1104 6.6361 16.9452 12.2875
173 1 -1.1104 3.88609 3.01063 6.70687
170 1 -1.1104 1.09447 0.236364 6.72148
28 2 2.2208 13.6371 21.0185 10.8657
175 2 2.2208 5.19159 1.65754 10.8979
176 1 -1.1104 1.11887 -2.59207 12.1751
177 1 -1.1104 1.09 3.01141 12.1123
180 1 -1.1104 1.01851 -2.59748 9.40657
181 1 -1.1104 1.12599 3.16029 9.33029
184 1 -1.1104 0.980012 0.121814 12.2891
186 2 2.2208 5.23569 -1.16499 8.06185
187 2 2.2208 5.19214 4.38016 8.05859
188 1 -1.1104 1.08504 0.319217 9.47472
190 1 -1.1104 3.96286 -2.53764 12.167
191 1 -1.1104 3.7757 3.07109 12.2034
192 2 2.2208 2.47214 1.66412 8.05504
193 1 -1.1104 3.79069 -2.63972 9.442
194 1 -1.1104 3.87787 3.00936 9.52076
195 2 2.2208 2.41479 -1.16826 10.7723
196 2 2.2208 2.50016 4.48797 10.855
197 1 -1.1104 3.73955 0.251556 12.2765
198 1 -1.1104 3.84152 0.25514 9.45869
339 2 2.2208 2.37806 1.56026 13.5908
169 1 -1.1104 6.64175 3.05126 6.6039
314 1 -1.1104 9.56258 16.7915 9.55493
328 1 -1.1104 12.2296 14.2063 9.46883
9032 2 2.2208 10.9114 -3.98125 10.8848
205 1 -1.1104 12.3011 -2.69668 6.63011
206 1 -1.1104 12.2407 2.93047 6.57253
185 1 -1.1104 6.51014 0.0775301 12.1854
168 1 -1.1104 6.70193 -2.55251 6.69878
189 1 -1.1104 6.6138 0.315191 9.42209
178 1 -1.1104 6.65157 -2.70706 12.2641
171 1 -1.1104 6.6337 0.168777 6.60688
209 1 -1.1104 9.50274 3.0066 6.51496
207 1 -1.1104 12.245 0.258812 6.57519
183 1 -1.1104 6.68307 3.05543 9.42996
179 1 -1.1104 6.6673 3.01253 12.1886
182 1 -1.1104 6.72865 -2.62536 9.42723
210 1 -1.1104 9.38521 0.124932 6.60815
211 2 2.2208 10.9399 1.60001 10.772
212 1 -1.1104 12.2491 -2.58351 12.274
213 1 -1.1104 12.2992 2.92981 12.206
214 1 -1.1104 12.2885 -2.6037 9.46746
215 1 -1.1104 12.2995 2.93702 9.31473
216 1 -1.1104 12.2441 0.212794 12.195
217 2 2.2208 10.8143 -1.18057 8.00098
218 2 2.2208 10.8535 4.37924 7.94296
219 1 -1.1104 12.3123 0.145341 9.33895
220 1 -1.1104 9.36486 -2.61695 12.2077
221 1 -1.1104 9.4665 3.01697 12.2935
222 2 2.2208 7.98755 1.67716 8.02036
223 1 -1.1104 9.50679 -2.50936 9.36628
224 1 -1.1104 9.4453 2.96745 9.37189
225 2 2.2208 7.98867 -1.1655 10.7901
226 2 2.2208 8.12707 4.40192 10.8622
227 1 -1.1104 9.43597 0.295947 12.1845
228 1 -1.1104 9.49032 0.24082 9.43781
332 2 2.2208 13.656 18.2773 8.12997
324 2 2.2208 10.866 21.0858 8.03049
325 2 2.2208 10.9068 15.505 8.04841
9033 2 2.2208 13.6974 -4.02085 7.9006
343 2 2.2208 8.0749 1.57915 13.5413
9044 2 2.2208 13.6609 -4.0375 13.6735
78 1 -1.1104 3.78291 11.3848 6.56901
321 1 -1.1104 9.35158 19.599 12.2474
238 1 -1.1104 3.65834 8.63102 6.53732
62 1 -1.1104 1.053 11.3517 6.51503
234 1 -1.1104 1.01863 8.63701 6.65025
236 1 -1.1104 1.03923 5.80363 6.62342
240 2 2.2208 5.18726 7.19046 10.7834
241 2 2.2208 5.22975 12.671 10.8676
242 1 -1.1104 1.12045 8.54606 12.0863
244 1 -1.1104 1.01643 8.61017 9.39535
246 1 -1.1104 1.02992 5.77913 12.2574
247 1 -1.1104 1.03872 11.4397 12.2452
250 2 2.2208 5.18466 9.91549 7.94902
251 1 -1.1104 0.973799 5.89006 9.44884
252 1 -1.1104 1.12188 11.4346 9.37781
255 1 -1.1104 3.88607 8.69917 12.1583
256 2 2.2208 2.40763 7.14488 7.982
257 2 2.2208 2.45357 12.7035 7.99768
258 1 -1.1104 3.78007 8.52419 9.36115
259 2 2.2208 2.43266 9.96031 10.8047
260 1 -1.1104 3.88107 5.90583 12.2043
261 1 -1.1104 3.77125 11.3992 12.2282
262 1 -1.1104 3.8226 5.86417 9.41811
263 1 -1.1104 3.9422 11.3057 9.39143
253 1 -1.1104 6.61896 5.78282 9.4444
245 1 -1.1104 6.54417 8.61274 9.28756
320 2 2.2208 8.03877 18.2641 8.10813
65 1 -1.1104 6.63687 11.2568 6.623
235 1 -1.1104 6.58846 8.64303 6.54877
267 1 -1.1104 9.55571 8.62251 6.55773
322 1 -1.1104 9.3999 14.2073 12.2808
249 1 -1.1104 6.59636 11.3234 12.2653
254 1 -1.1104 6.68184 11.3334 9.49117
243 1 -1.1104 6.59288 8.55192 12.1338
266 1 -1.1104 12.316 5.74181 6.51295
269 1 -1.1104 9.44929 5.88805 6.52001
248 1 -1.1104 6.72987 5.8545 12.2536
264 1 -1.1104 9.41682 11.228 9.3973
268 1 -1.1104 9.44644 5.78797 9.44425
270 1 -1.1104 9.45197 11.3337 12.2796
271 1 -1.1104 9.60975 5.72279 12.2878
272 2 2.2208 8.0545 9.92085 10.8537
273 1 -1.1104 9.40747 8.49532 9.41049
274 2 2.2208 8.03469 12.7093 8.00199
275 2 2.2208 8.02391 7.18153 7.89902
276 2 2.2208 10.8317 7.09867 10.8973
277 2 2.2208 10.8605 12.683 10.8542
278 1 -1.1104 12.1679 8.48945 12.331
279 1 -1.1104 12.2515 8.57683 9.46453
280 1 -1.1104 12.3923 5.74229 12.0777
281 1 -1.1104 12.2288 11.3052 12.2785
282 2 2.2208 10.8004 9.9172 8.0637
283 1 -1.1104 12.1672 5.77689 9.29927
284 1 -1.1104 12.1986 11.4306 9.47975
285 1 -1.1104 9.41315 8.56306 12.2551
329 1 -1.1104 12.231 19.6731 12.319
297 1 -1.1104 6.59355 14.1147 12.275
302 1 -1.1104 0.999446 19.7257 6.71937
108 1 -1.1104 1.18095 14.1784 6.62131
126 1 -1.1104 3.78554 19.7743 6.81071
327 1 -1.1104 12.3092 19.728 9.52252
317 2 2.2208 8.05953 15.5667 10.9103
305 1 -1.1104 3.84642 14.1131 9.49526
300 2 2.2208 5.23507 18.3661 10.9147
301 1 -1.1104 3.82956 19.7198 9.56519
304 1 -1.1104 3.94521 17.0202 9.51298
303 2 2.2208 2.50622 18.3559 8.16047
298 1 -1.1104 1.09736 19.7167 12.2754
310 2 2.2208 2.47635 15.511 10.8384
295 2 2.2208 5.30972 15.5217 8.12752
309 2 2.2208 2.3782 21.1555 10.8837
308 1 -1.1104 3.74681 16.9706 12.2389
307 1 -1.1104 1.01507 17.0281 12.3634
299 1 -1.1104 1.02852 14.1678 12.2948
286 1 -1.1104 3.86292 19.7573 12.3205
287 1 -1.1104 3.89768 14.1686 12.2987
291 1 -1.1104 1.01789 19.702 9.54398
292 1 -1.1104 1.11351 16.9155 9.48495
293 2 2.2208 5.20293 21.1801 8.10287
294 1 -1.1104 1.04443 14.1281 9.41398
296 1 -1.1104 6.66915 19.8119 12.3264
358 2 2.2208 5.20994 21.1707 13.6523
289 1 -1.1104 6.77983 16.935 9.45499
318 1 -1.1104 9.41985 19.502 9.45641
326 1 -1.1104 12.2917 16.8552 12.3068
338 2 2.2208 5.29661 -1.25013 13.6064
348 2 2.2208 10.801 18.3564 -0.352236
344 2 2.2208 13.6897 15.606 -0.367301
347 2 2.2208 8.15602 15.5382 -0.460994
350 2 2.2208 10.9321 4.38731 13.649
346 2 2.2208 10.791 -1.18888 13.6462
367 2 2.2208 -0.362967 9.96914 13.5902
353 2 2.2208 2.38091 12.8681 13.7174
336 2 2.2208 13.6536 7.17151 13.5882
356 2 2.2208 7.91954 12.8112 13.7014
354 2 2.2208 8.00995 7.23342 13.6711
342 2 2.2208 -0.399056 15.5861 13.6894
363 2 2.2208 13.6772 18.2775 13.7887
384 2 2.2208 10.8556 7.20669 -0.376284
388 2 2.2208 5.34228 1.6178 16.3825
389 1 -1.1104 1.07287 -2.63477 17.7967
390 1 -1.1104 1.15326 3.01444 17.7764
393 1 -1.1104 0.968389 -2.50642 15.0564
395 1 -1.1104 0.980073 2.97231 14.9871
401 1 -1.1104 1.17656 0.148808 17.862
403 2 2.2208 5.26673 -1.23037 19.2968
404 2 2.2208 5.30759 4.36728 19.243
405 1 -1.1104 1.09742 0.202382 15.0451
409 1 -1.1104 3.93146 -2.63335 17.7973
410 1 -1.1104 3.93343 3.03334 17.8317
411 2 2.2208 2.43054 1.60345 19.3146
412 1 -1.1104 3.90376 -2.74179 14.9529
414 1 -1.1104 3.90839 2.97984 14.9823
416 2 2.2208 2.52692 -1.20627 16.4166
417 2 2.2208 2.54733 4.38651 16.3362
418 1 -1.1104 3.89108 0.249735 17.8766
419 1 -1.1104 3.92335 0.10627 15.0397
391 1 -1.1104 6.71923 -2.64746 17.8218
341 2 2.2208 5.29348 4.42636 13.6578
399 1 -1.1104 6.6778 3.14504 14.9855
9188 2 2.2208 5.34904 -4.03363 16.4066
392 1 -1.1104 6.67834 2.88743 17.7824
413 1 -1.1104 3.84816 -2.65858 20.6492
9187 2 2.2208 2.57318 -3.98934 19.2514
397 1 -1.1104 6.59189 -2.66616 15.0405
421 2 2.2208 -0.490719 7.26079 21.9981
420 1 -1.1104 3.78151 0.165749 20.6813
406 1 -1.1104 1.014 0.126108 20.6981
394 1 -1.1104 0.972881 -2.62942 20.639
408 1 -1.1104 6.60467 0.0667985 20.7081
9120 2 2.2208 13.637 -4.01986 24.7479
645 2 2.2208 -0.363505 21.2369 24.88
407 1 -1.1104 6.66893 0.219325 14.9271
402 1 -1.1104 6.65593 0.226684 17.8333
431 2 2.2208 10.8302 1.60445 16.3837
432 1 -1.1104 12.2974 -2.63573 17.9069
433 1 -1.1104 12.3169 3.10047 17.8727
434 1 -1.1104 12.2754 -2.61171 15.108
436 1 -1.1104 12.2474 2.9174 15.1102
438 1 -1.1104 12.2366 0.175192 17.7793
439 2 2.2208 10.8072 -1.23808 19.2599
440 2 2.2208 10.7523 4.34344 19.1935
441 1 -1.1104 12.1336 0.159481 15.0036
443 1 -1.1104 9.56724 -2.61121 17.7896
444 1 -1.1104 9.45005 2.9476 17.7465
445 2 2.2208 7.9833 1.49832 19.2695
446 1 -1.1104 9.41195 -2.63657 15.0204
448 1 -1.1104 9.46136 2.99124 14.8814
450 2 2.2208 8.07198 -1.23185 16.3829
451 2 2.2208 8.07445 4.36233 16.3493
452 1 -1.1104 9.52614 0.218744 17.8497
453 1 -1.1104 9.30676 0.0607689 14.9515
458 2 2.2208 -0.282855 21.1234 19.2665
447 1 -1.1104 9.37969 -2.69012 20.6114
9158 2 2.2208 10.91 -4.02594 16.3771
455 2 2.2208 13.709 18.3988 24.891
456 2 2.2208 -0.367832 18.401 16.5349
618 2 2.2208 13.7681 18.4591 19.3157
648 2 2.2208 -0.430396 12.7759 16.4491
351 2 2.2208 2.45811 7.27566 13.5549
464 2 2.2208 5.20153 7.27925 16.3544
465 2 2.2208 5.18177 12.7985 16.4085
466 1 -1.1104 1.02761 8.58991 17.8404
468 1 -1.1104 1.06891 8.60336 14.8835
472 1 -1.1104 1.08867 5.7631 17.8477
473 1 -1.1104 0.932287 11.3923 17.8847
476 2 2.2208 5.3505 10.0301 19.2198
477 1 -1.1104 1.06892 5.78617 15.0425
479 1 -1.1104 0.978123 11.3427 14.9996
485 1 -1.1104 3.82747 8.6414 17.8647
486 2 2.2208 2.47521 7.12661 19.2066
487 2 2.2208 2.4729 12.8214 19.2248
488 1 -1.1104 3.78669 8.68336 14.9363
490 2 2.2208 2.43225 9.97348 16.4959
491 1 -1.1104 3.85024 5.83247 17.7419
492 1 -1.1104 3.82465 11.4318 17.8272
493 1 -1.1104 3.81028 5.89822 14.9193
495 1 -1.1104 3.65911 11.423 15.108
483 1 -1.1104 6.49249 11.4141 15.0089
474 1 -1.1104 6.65631 5.82732 17.875
475 1 -1.1104 6.68177 11.4429 17.7775
481 1 -1.1104 6.52882 5.83461 15.0465
480 1 -1.1104 1.09446 11.4352 20.6022
376 2 2.2208 13.6347 12.8273 13.6968
650 2 2.2208 13.6809 12.8543 19.232
525 2 2.2208 10.9273 15.591 24.9018
424 2 2.2208 -0.336263 1.58348 16.41
470 1 -1.1104 6.65501 8.72232 15.0325
467 1 -1.1104 6.68957 8.61989 17.8726
429 2 2.2208 13.7235 4.44327 16.328
617 1 -1.1104 9.41926 17.1651 23.5767
500 2 2.2208 10.8047 7.16734 16.4781
501 2 2.2208 10.8852 12.7087 16.5174
502 1 -1.1104 12.1326 8.63572 17.8649
503 1 -1.1104 12.1834 8.47717 14.9797
505 1 -1.1104 12.2316 5.82421 17.7339
506 1 -1.1104 12.3703 11.3806 17.9352
507 2 2.2208 10.9266 9.92651 19.2841
508 1 -1.1104 12.3491 5.75805 14.9028
510 1 -1.1104 12.1767 11.4257 15.1575
512 1 -1.1104 9.42552 8.61339 17.8342
513 2 2.2208 8.04152 7.18318 19.252
514 2 2.2208 8.10606 12.7723 19.2848
515 1 -1.1104 9.31487 8.62746 15.0043
517 2 2.2208 7.99725 10.0091 16.503
518 1 -1.1104 9.45727 5.70896 17.8395
519 1 -1.1104 9.42299 11.364 17.969
520 1 -1.1104 9.46809 5.87457 15.0386
522 1 -1.1104 9.36276 11.3381 15.1003
651 2 2.2208 13.6681 7.09173 19.2206
509 1 -1.1104 12.3599 5.72983 20.5429
504 1 -1.1104 12.3349 8.56526 20.7027
511 1 -1.1104 12.3345 11.4067 20.6659
527 2 2.2208 5.30762 18.2199 16.5258
528 1 -1.1104 1.10618 14.2513 17.9701
529 1 -1.1104 1.14147 19.8248 17.7945
532 1 -1.1104 0.988843 14.2125 15.2309
534 1 -1.1104 1.04589 19.8919 15.0546
540 1 -1.1104 1.1393 16.9987 17.8714
542 2 2.2208 5.24822 15.5014 19.2878
543 2 2.2208 5.1989 21.152 19.2471
544 1 -1.1104 1.00218 17.1055 15.067
548 1 -1.1104 3.87483 14.2823 17.7844
549 1 -1.1104 3.84835 19.6925 17.8396
550 2 2.2208 2.4928 18.423 19.3157
551 1 -1.1104 3.77419 14.2002 15.0903
553 1 -1.1104 3.83731 19.8086 14.9993
555 2 2.2208 2.43844 15.654 16.489
556 2 2.2208 2.48009 21.2336 16.429
557 1 -1.1104 3.90114 16.9667 17.9032
558 1 -1.1104 3.79902 16.99 15.0778
530 1 -1.1104 6.57632 14.2085 17.7563
536 1 -1.1104 6.50236 14.1779 15.0477
541 1 -1.1104 6.69635 16.9292 17.9585
531 1 -1.1104 6.65516 19.6809 17.8622
559 1 -1.1104 3.88027 16.9211 20.7012
545 1 -1.1104 1.0152 17.084 20.646
535 1 -1.1104 1.078 19.8035 20.6881
524 1 -1.1104 12.238 17.0866 23.5438
357 2 2.2208 2.47227 18.3844 13.6309
619 2 2.2208 13.635 15.5649 16.4216
538 1 -1.1104 6.6262 19.7218 15.0488
546 1 -1.1104 6.66033 16.9708 15.0293
563 2 2.2208 10.8542 18.3431 16.5228
564 1 -1.1104 12.2526 14.2164 17.9014
565 1 -1.1104 12.2117 19.8051 17.9222
566 1 -1.1104 12.2303 14.1355 15.0373
568 1 -1.1104 12.2539 19.6779 15.1086
570 1 -1.1104 12.2624 16.9888 17.9312
571 2 2.2208 10.8633 15.5917 19.263
572 2 2.2208 10.8685 21.2588 19.2972
573 1 -1.1104 12.1728 16.9613 15.1417
575 1 -1.1104 9.48194 14.1553 17.8489
576 1 -1.1104 9.49996 19.768 17.9408
577 2 2.2208 8.09803 18.3058 19.3476
578 1 -1.1104 9.35141 14.0939 15.0659
580 1 -1.1104 9.45896 19.7917 15.1556
582 2 2.2208 8.06255 15.5259 16.4467
583 2 2.2208 8.04505 21.0492 16.5888
584 1 -1.1104 9.49119 16.9064 17.8998
585 1 -1.1104 9.41596 16.9964 15.1334
567 1 -1.1104 12.2771 14.2894 20.6575
616 2 2.2208 8.16054 21.2611 22.155
581 1 -1.1104 9.42122 19.8017 20.7681
539 1 -1.1104 6.73157 19.8224 20.5749
586 1 -1.1104 9.60287 17.0408 20.6998
569 1 -1.1104 12.3319 19.9404 20.7534
361 2 2.2208 10.8106 15.4907 13.6933
362 2 2.2208 8.02162 18.3614 13.7147
398 1 -1.1104 6.65505 -2.6311 20.6519
685 2 2.2208 -0.328609 12.8069 22.0346
396 1 -1.1104 0.980348 3.03951 20.5798
415 1 -1.1104 3.76235 3.02682 20.7375
591 2 2.2208 5.12995 1.51492 22.1139
592 1 -1.1104 0.951038 -2.5319 23.4728
593 1 -1.1104 0.928005 3.04525 23.324
596 1 -1.1104 0.993331 -2.50947 26.1181
597 1 -1.1104 1.06848 2.96939 26.2032
600 1 -1.1104 1.03338 0.313872 23.4584
602 2 2.2208 5.1863 -1.21927 24.7984
603 2 2.2208 5.25017 4.37716 24.87
604 1 -1.1104 1.02651 0.272701 26.2141
606 1 -1.1104 3.84371 -2.63974 23.4564
607 1 -1.1104 3.71097 2.95927 23.4475
608 2 2.2208 2.40735 1.61432 24.8724
609 1 -1.1104 3.81408 -2.51209 26.1993
610 1 -1.1104 3.81447 2.9494 26.2265
611 2 2.2208 2.31557 -1.20907 22.1071
612 2 2.2208 2.42706 4.3102 22.1332
613 1 -1.1104 3.81543 0.153977 23.5166
614 1 -1.1104 3.78948 0.186048 26.1946
599 1 -1.1104 6.62386 3.00994 26.2256
598 1 -1.1104 6.66659 -2.55239 26.2534
605 1 -1.1104 6.69876 0.24709 26.1763
601 1 -1.1104 6.57338 0.224372 23.4352
365 2 2.2208 2.43536 -1.16167 27.5927
497 1 -1.1104 12.3726 19.8426 23.4578
400 1 -1.1104 6.51916 2.87541 20.6522
454 1 -1.1104 9.46307 0.156941 20.6636
442 1 -1.1104 12.2371 0.304331 20.6284
435 1 -1.1104 12.2395 -2.55851 20.5734
654 2 2.2208 13.6066 1.5972 24.7953
423 2 2.2208 13.6525 4.41139 22.013
594 1 -1.1104 6.61092 -2.64724 23.4864
595 1 -1.1104 6.62503 3.06119 23.4999
437 1 -1.1104 12.1594 3.03253 20.7362
9118 2 2.2208 8.08979 -4.02838 24.7768
449 1 -1.1104 9.41027 2.97975 20.604
9119 2 2.2208 10.7663 -4.05763 21.9723
627 2 2.2208 10.767 1.62925 22.0421
628 1 -1.1104 12.2299 -2.63703 23.2887
629 1 -1.1104 12.2547 2.96995 23.452
630 1 -1.1104 12.1878 -2.61841 26.0366
631 1 -1.1104 12.2327 2.91124 26.1397
632 1 -1.1104 12.1196 0.280546 23.3692
633 2 2.2208 10.8446 -1.1618 24.7386
634 2 2.2208 10.8922 4.35688 24.8326
635 1 -1.1104 12.3499 0.175461 26.217
636 1 -1.1104 9.37891 -2.67304 23.2453
637 1 -1.1104 9.37155 2.91122 23.444
638 2 2.2208 8.01551 1.59483 24.7968
639 1 -1.1104 9.45532 -2.58872 26.0923
640 1 -1.1104 9.41904 3.1598 26.1776
641 2 2.2208 8.04558 -1.2348 22.0489
642 2 2.2208 8.05315 4.30984 22.0059
643 1 -1.1104 9.43204 0.135757 23.3766
644 1 -1.1104 9.50753 0.268563 26.0578
653 2 2.2208 13.585 -1.20186 21.9089
9037 2 2.2208 10.848 -4.04745 27.6028
499 1 -1.1104 12.3425 19.8485 26.309
494 1 -1.1104 3.75755 5.88395 20.7376
469 1 -1.1104 1.07445 8.55421 20.6256
471 1 -1.1104 6.59894 8.6329 20.5143
478 1 -1.1104 0.918589 5.81837 20.7008
489 1 -1.1104 3.86427 8.62015 20.6993
496 1 -1.1104 3.90193 11.4296 20.5512
656 2 2.2208 5.17682 7.15865 22.0721
657 2 2.2208 5.26606 12.6931 22.0704
658 1 -1.1104 1.03706 8.55349 23.3943
660 1 -1.1104 1.09857 8.68164 26.1989
662 1 -1.1104 0.992371 5.79813 23.5586
663 1 -1.1104 1.06342 11.3681 23.4394
666 2 2.2208 5.26424 9.90498 24.873
667 1 -1.1104 0.938956 5.78101 26.2696
668 1 -1.1104 1.1047 11.5337 26.2324
671 1 -1.1104 3.80635 8.46654 23.5509
672 2 2.2208 2.35339 7.09141 24.8304
673 2 2.2208 2.47988 12.8129 24.8037
674 1 -1.1104 3.85346 8.59755 26.2915
675 2 2.2208 2.44789 9.94446 22.0476
676 1 -1.1104 3.85825 5.71955 23.4704
677 1 -1.1104 3.92714 11.3021 23.3993
678 1 -1.1104 3.73788 5.68148 26.2996
679 1 -1.1104 3.91799 11.3844 26.1947
669 1 -1.1104 6.64138 5.76032 26.2126
661 1 -1.1104 6.62835 8.53432 26.2068
484 1 -1.1104 6.79311 11.2987 20.5978
670 1 -1.1104 6.65217 11.3555 26.1502
380 2 2.2208 2.49524 10.0838 27.6279
526 2 2.2208 11.0036 21.2115 24.9455
664 1 -1.1104 6.65025 5.802 23.374
523 1 -1.1104 9.67206 11.3578 20.6846
516 1 -1.1104 9.53605 8.56297 20.6296
659 1 -1.1104 6.71966 8.59896 23.2942
665 1 -1.1104 6.68101 11.2961 23.4135
482 1 -1.1104 6.60271 5.72011 20.6341
521 1 -1.1104 9.42483 5.76845 20.6494
687 1 -1.1104 9.47288 11.3181 26.232
688 1 -1.1104 9.47762 5.85147 26.2483
689 1 -1.1104 9.41676 11.381 23.4436
690 1 -1.1104 9.38007 5.77534 23.3373
691 2 2.2208 8.08482 10.014 21.95
692 1 -1.1104 9.45075 8.63233 26.1519
693 2 2.2208 8.09025 12.7979 24.8641
694 2 2.2208 8.09425 7.21309 24.7163
695 2 2.2208 10.8069 7.06189 22.0922
696 2 2.2208 10.9374 12.8356 22.0052
697 1 -1.1104 12.2616 8.64046 23.5235
698 1 -1.1104 12.2121 8.60157 26.2516
699 1 -1.1104 12.1097 5.83451 23.4077
700 1 -1.1104 12.3097 11.4963 23.4833
701 2 2.2208 10.9072 9.98953 24.8255
702 1 -1.1104 12.2447 5.80586 26.1498
703 1 -1.1104 12.4273 11.3743 26.2303
704 1 -1.1104 9.52888 8.59381 23.3246
589 1 -1.1104 9.45212 14.1564 26.2547
385 2 2.2208 8.02656 9.96049 27.5773
623 2 2.2208 -0.229585 18.3991 22.1087
588 1 -1.1104 6.67567 19.8134 26.1501
680 1 -1.1104 6.6584 16.8992 23.4909
547 1 -1.1104 6.74652 16.912 20.7178
373 2 2.2208 2.53357 15.6033 27.7113
714 1 -1.1104 6.68344 16.8812 26.2774
552 1 -1.1104 3.85103 14.0765 20.6426
554 1 -1.1104 3.93979 19.795 20.7404
533 1 -1.1104 1.05844 14.3049 20.7746
537 1 -1.1104 6.71175 14.1596 20.6012
647 2 2.2208 2.48278 15.5944 22.1334
649 2 2.2208 2.50095 21.1363 22.0754
652 1 -1.1104 3.91372 17.0474 23.5582
655 1 -1.1104 1.09386 17.0251 23.3498
681 1 -1.1104 3.84019 14.1693 26.2589
682 1 -1.1104 3.88691 17.0041 26.2854
683 2 2.2208 2.53681 18.3948 24.894
686 1 -1.1104 3.83826 19.76 26.3471
705 2 2.2208 5.29686 18.3559 22.1409
706 1 -1.1104 1.03166 14.2021 23.5897
707 1 -1.1104 1.21011 19.794 23.4275
711 1 -1.1104 4.0159 19.7254 23.5952
713 1 -1.1104 3.82517 14.1672 23.4802
715 1 -1.1104 1.03017 19.8309 26.245
716 1 -1.1104 1.12382 16.9698 26.1868
717 1 -1.1104 1.0756 14.2726 26.327
719 2 2.2208 5.29582 21.1748 24.8798
720 2 2.2208 5.1384 15.5449 24.9058
709 1 -1.1104 6.74124 14.0531 23.4311
718 1 -1.1104 6.68615 19.7461 23.4234
620 1 -1.1104 9.54392 16.9723 26.2957
587 2 2.2208 8.07878 18.4617 24.8722
574 1 -1.1104 12.2935 17.0892 20.7322
562 1 -1.1104 9.56812 19.7975 23.5557
615 2 2.2208 8.13958 15.5589 22.135
560 1 -1.1104 12.2615 16.968 26.1976
561 1 -1.1104 9.56512 14.1834 23.4186
463 1 -1.1104 12.3274 14.2207 23.4802
579 1 -1.1104 9.48329 14.1582 20.5469
498 1 -1.1104 12.3363 14.222 26.2152
590 1 -1.1104 9.60023 19.8164 26.334
462 2 2.2208 10.869 18.4376 22.126
712 1 -1.1104 6.67947 14.098 26.241
366 2 2.2208 2.40266 4.36138 27.7233
364 2 2.2208 5.23517 1.5996 27.5764
9041 2 2.2208 5.25515 -3.97477 27.6172
360 2 2.2208 10.8292 21.0593 13.6478
378 2 2.2208 13.6501 4.39888 27.5701
334 2 2.2208 -0.331098 -1.27057 13.6359
372 2 2.2208 8.01361 4.4382 27.6678
369 2 2.2208 10.8693 1.63501 27.4873
381 2 2.2208 5.28207 12.8045 27.6515
379 2 2.2208 5.2201 7.12975 27.6056
386 2 2.2208 10.8783 12.6517 27.6263
371 2 2.2208 -0.219399 18.3493 27.6762
9049 2 2.2208 2.46483 -3.95638 13.6308
352 2 2.2208 5.21265 10.0501 13.5823
355 2 2.2208 10.7678 9.95136 13.6918
359 2 2.2208 5.18459 15.578 13.7047
721 2 2.2208 5.27402 23.9477 5.3214
722 2 2.2208 5.25352 29.588 5.19648
723 1 -1.1104 1.05263 25.3416 1.1746
724 1 -1.1104 1.04684 25.487 3.97529
725 1 -1.1104 1.15491 22.4972 1.17535
726 1 -1.1104 0.990156 28.3169 1.12924
727 2 2.2208 5.2989 26.8938 2.56099
728 1 -1.1104 1.17549 22.5709 4.00698
729 1 -1.1104 0.971685 28.2676 3.82005
730 1 -1.1104 3.85268 25.4056 1.09181
731 2 2.2208 2.46345 24.0201 2.55803
732 2 2.2208 2.38918 29.6574 2.4344
733 1 -1.1104 3.94028 25.4755 3.96547
734 2 2.2208 2.4879 26.8888 5.36742
735 1 -1.1104 3.94128 22.5238 1.19026
736 1 -1.1104 3.80462 28.212 1.08882
737 1 -1.1104 3.96267 22.5653 3.9384
738 1 -1.1104 3.81457 28.2668 3.83525
868 1 -1.1104 3.88139 25.4431 6.69545
865 1 -1.1104 1.08017 28.2345 6.64358
864 1 -1.1104 1.12769 22.5711 6.73819
742 1 -1.1104 6.58529 25.4282 1.17182
740 2 2.2208 -0.262873 24.0072 5.34099
867 1 -1.1104 6.71886 28.1263 6.61488
1068 2 2.2208 5.27189 23.9767 -0.261426
744 1 -1.1104 6.6798 22.6913 1.13714
746 1 -1.1104 6.66102 22.6256 3.90866
745 1 -1.1104 6.7005 28.1667 1.13938
743 1 -1.1104 6.73809 25.4091 4.06207
1005 2 2.2208 -0.373401 43.6545 8.10057
739 2 2.2208 -0.407944 29.5618 5.25176
747 1 -1.1104 6.70097 28.2296 3.9773
748 2 2.2208 10.8701 23.8873 5.29793
749 2 2.2208 10.8874 29.6133 5.24296
750 1 -1.1104 12.1574 25.35 1.12651
751 1 -1.1104 12.2189 25.3835 3.94077
752 1 -1.1104 12.391 22.5211 1.12154
753 1 -1.1104 12.322 28.0668 1.06359
754 2 2.2208 10.792 26.758 2.49527
755 1 -1.1104 12.2012 22.5106 3.85574
756 1 -1.1104 12.1788 28.2575 3.90368
757 1 -1.1104 9.37072 25.4517 1.21696
758 2 2.2208 8.04265 24.005 2.59436
759 2 2.2208 8.13168 29.6001 2.42816
760 1 -1.1104 9.51282 25.3606 3.91848
761 2 2.2208 8.12664 26.7401 5.33353
762 1 -1.1104 9.51207 22.5903 1.04087
763 1 -1.1104 9.51874 28.2363 1.13997
764 1 -1.1104 9.48261 22.5974 3.94264
765 1 -1.1104 9.44547 28.2231 3.92551
983 1 -1.1104 6.93409 39.5816 12.2518
900 1 -1.1104 9.46271 28.213 6.70684
898 1 -1.1104 9.45823 25.3123 6.72576
1075 2 2.2208 8.05044 26.7011 -0.147512
899 1 -1.1104 9.50823 22.4975 6.74042
897 1 -1.1104 12.2458 28.2282 6.75239
895 1 -1.1104 12.2778 25.4055 6.70441
896 1 -1.1104 12.3829 22.5343 6.59578
1077 2 2.2208 10.9425 29.5302 -0.298588
1021 1 -1.1104 12.4821 42.3871 9.39139
769 2 2.2208 5.235 35.1984 5.28551
770 1 -1.1104 1.08993 31.1297 1.13655
771 1 -1.1104 1.04294 36.5696 1.12096
773 1 -1.1104 0.911515 31.0602 3.90704
774 1 -1.1104 0.990136 36.6956 3.87488
776 1 -1.1104 1.06675 33.8084 0.966416
777 2 2.2208 5.20293 32.5191 2.45387
778 2 2.2208 5.18448 37.9242 2.50378
779 1 -1.1104 0.909347 33.8512 3.81413
781 1 -1.1104 3.98482 31.025 1.07461
782 1 -1.1104 3.81192 36.5957 1.01749
783 2 2.2208 2.47271 35.2301 2.48041
784 1 -1.1104 3.76258 31.0392 3.74594
785 1 -1.1104 3.86959 36.5663 3.87007
786 2 2.2208 2.413 32.4812 5.20817
787 2 2.2208 2.40985 37.9998 5.34467
788 1 -1.1104 3.83434 33.8314 1.08436
789 1 -1.1104 3.86396 33.8176 3.87206
1078 2 2.2208 2.36964 37.9944 -0.356928
927 1 -1.1104 3.76319 33.8098 6.70095
921 1 -1.1104 6.5853 31.0234 6.53289
961 1 -1.1104 12.3792 39.0807 9.21991
780 1 -1.1104 6.63546 33.8421 3.81066
795 1 -1.1104 6.70268 33.8068 1.03072
924 1 -1.1104 6.59385 33.8258 6.56049
793 1 -1.1104 6.66682 30.9323 1.04804
794 1 -1.1104 6.56655 31.1012 3.86743
919 1 -1.1104 0.886272 31.0233 6.68693
1020 1 -1.1104 12.2435 44.8433 12.3216
1079 2 2.2208 2.56502 32.4149 -0.282882
772 1 -1.1104 6.65774 36.6028 1.02917
775 1 -1.1104 6.66267 36.5968 3.67629
796 2 2.2208 10.7887 35.1646 5.39648
797 1 -1.1104 12.2337 30.9783 1.06953
798 1 -1.1104 12.3637 36.6486 1.16986
799 1 -1.1104 12.2554 31.0425 3.83961
800 1 -1.1104 12.2 36.6314 3.91375
801 1 -1.1104 12.2459 33.8393 1.19184
802 2 2.2208 10.8633 32.4491 2.5676
803 2 2.2208 10.8975 38.0198 2.51284
804 1 -1.1104 12.2642 33.8913 3.89026
805 1 -1.1104 9.49691 30.9887 1.06113
806 1 -1.1104 9.49855 36.5804 1.11178
807 2 2.2208 8.14355 35.2484 2.57531
808 1 -1.1104 9.34819 30.9794 3.79253
809 1 -1.1104 9.38994 36.6108 3.86859
810 2 2.2208 7.9954 32.4367 5.22904
811 2 2.2208 8.08947 38.0443 5.31273
812 1 -1.1104 9.50367 33.8122 1.16079