ITEM: TIMESTEP
90000
ITEM: NUMBER OF ATOMS
17760
ITEM: BOX BOUNDS pp pp pp
-3.3666205164687274e-01 2.7676662051646730e+01
-4.0131905466940578e+00 3.3209319054669567e+02
-3.3253939867543914e-01 2.7672539398674910e+01
ITEM: ATOMS id type q x y z
1 2 2.2208 5.15679 1.57173 5.11894
2 1 -1.1104 0.924026 -2.63316 0.933471
3 1 -1.1104 1.03075 2.89861 1.10734
6 1 -1.1104 0.935334 -2.65906 3.74958
7 1 -1.1104 0.992827 3.01629 3.88896
10 1 -1.1104 1.00642 0.123229 0.957323
12 2 2.2208 5.16889 -1.26192 2.35893
13 2 2.2208 5.17984 4.33476 2.31481
14 1 -1.1104 0.978859 0.149993 3.75854
16 1 -1.1104 3.7606 -2.71199 0.952371
17 1 -1.1104 3.77574 2.98983 1.03596
18 2 2.2208 2.37486 1.6016 2.42742
19 1 -1.1104 3.73043 -2.526 3.78271
20 1 -1.1104 3.81757 3.00939 3.71031
21 2 2.2208 2.29463 -1.22408 5.19923
22 2 2.2208 2.40228 4.48627 5.17295
23 1 -1.1104 3.77514 0.133947 1.03527
24 1 -1.1104 3.7731 0.136903 3.8212
9 1 -1.1104 6.65288 2.85123 3.67037
4 1 -1.1104 6.58637 -2.64612 0.951304
8 1 -1.1104 6.59231 -2.7772 3.68798
11 1 -1.1104 6.56007 0.226673 0.834924
167 1 -1.1104 1.1387 3.09907 6.65602
171 1 -1.1104 6.60944 0.155102 6.52339
15 1 -1.1104 6.62718 0.0746555 3.69076
5 1 -1.1104 6.61072 3.00095 0.9271
166 1 -1.1104 0.920872 -2.64745 6.57949
174 1 -1.1104 3.77746 0.107883 6.6173
173 1 -1.1104 3.97 2.91793 6.51666
170 1 -1.1104 0.99444 0.169206 6.54867
9024 2 2.2208 -0.491794 -3.94689 5.3243
31 2 2.2208 10.7412 1.57113 5.21561
32 1 -1.1104 12.1618 -2.73619 0.998284
33 1 -1.1104 12.2205 2.84626 0.978594
34 1 -1.1104 12.2066 -2.64804 3.74075
35 1 -1.1104 12.3775 2.86564 3.75955
36 1 -1.1104 12.1441 0.0651991 1.01873
37 2 2.2208 10.7793 -1.22251 2.34174
38 2 2.2208 10.8625 4.33817 2.32717
39 1 -1.1104 12.1215 0.208598 3.78417
40 1 -1.1104 9.39842 -2.74251 0.936173
41 1 -1.1104 9.50281 2.99924 0.96082
42 2 2.2208 8.02577 1.51833 2.32232
43 1 -1.1104 9.36013 -2.59687 3.76845
44 1 -1.1104 9.52624 2.99679 3.7276
45 2 2.2208 7.99773 -1.27237 5.16118
46 2 2.2208 8.04409 4.36964 5.12596
47 1 -1.1104 9.37159 0.10185 0.99744
48 1 -1.1104 9.3179 0.183782 3.79632
209 1 -1.1104 9.43168 2.96568 6.56738
49 2 2.2208 13.6908 1.56731 2.3519
205 1 -1.1104 12.1495 -2.59094 6.61411
206 1 -1.1104 12.2746 2.98396 6.55733
210 1 -1.1104 9.3161 0.142414 6.62524
50 2 2.2208 13.5272 -1.21433 5.25309
233 2 2.2208 13.6128 4.3803 5.16999
208 1 -1.1104 9.3761 -2.64374 6.58486
207 1 -1.1104 12.0876 0.152923 6.61044
9028 2 2.2208 2.45948 -4.07288 7.96018
54 2 2.2208 5.24139 7.12197 5.1587
55 2 2.2208 5.26404 12.7273 5.17536
56 1 -1.1104 1.0821 8.60307 0.925434
58 1 -1.1104 0.9527 8.64357 3.74251
60 1 -1.1104 1.07123 5.76859 1.02104
61 1 -1.1104 1.02304 11.3259 0.962037
66 2 2.2208 5.26882 10.0086 2.39374
67 1 -1.1104 1.05188 5.86064 3.80622
68 1 -1.1104 1.05629 11.3625 3.77647
71 1 -1.1104 3.84597 8.55693 0.895325
72 2 2.2208 2.48442 7.19482 2.39321
73 2 2.2208 2.45602 12.7839 2.38556
74 1 -1.1104 3.79644 8.53372 3.79013
75 2 2.2208 2.46006 9.91316 5.13655
76 1 -1.1104 3.78327 5.73361 0.999325
77 1 -1.1104 3.87234 11.3052 1.01614
79 1 -1.1104 3.91183 5.71444 3.89447
80 1 -1.1104 3.88823 11.3091 3.76446
63 1 -1.1104 6.65428 5.78008 0.948897
57 1 -1.1104 6.5525 8.50257 0.945571
64 1 -1.1104 6.6129 11.3608 0.97564
236 1 -1.1104 1.12654 5.86998 6.55557
237 1 -1.1104 6.62085 5.8008 6.53146
62 1 -1.1104 1.05141 11.322 6.60386
238 1 -1.1104 3.96228 8.63438 6.58521
59 1 -1.1104 6.6927 8.52479 3.70133
70 1 -1.1104 6.62726 11.298 3.77964
78 1 -1.1104 3.78954 11.4226 6.48111
65 1 -1.1104 6.62318 11.3257 6.56661
69 1 -1.1104 6.69372 5.68175 3.77652
239 1 -1.1104 3.83087 5.77159 6.63117
235 1 -1.1104 6.65035 8.53567 6.51505
104 2 2.2208 13.6068 12.6538 2.41664
84 2 2.2208 10.9133 7.20573 5.13893
85 2 2.2208 10.8584 12.7039 5.20473
86 1 -1.1104 12.2563 8.43936 0.993332
87 1 -1.1104 12.3154 8.49292 3.80987
88 1 -1.1104 12.2727 5.62678 0.944605
89 1 -1.1104 12.156 11.2795 0.935378
91 2 2.2208 10.8477 9.82009 2.46459
92 1 -1.1104 12.2758 5.75169 3.62585
93 1 -1.1104 12.2141 11.3408 3.69895
94 1 -1.1104 9.44331 8.62762 0.971135
95 2 2.2208 8.0459 7.14813 2.33176
96 2 2.2208 7.96544 12.6626 2.46958
97 1 -1.1104 9.45325 8.55479 3.89866
98 2 2.2208 8.04292 9.94848 5.1985
99 1 -1.1104 9.37339 5.7678 0.919554
100 1 -1.1104 9.37812 11.3903 1.01794
102 1 -1.1104 9.5218 5.76804 3.81054
103 1 -1.1104 9.44835 11.3092 3.83827
90 1 -1.1104 12.2585 11.2836 6.5742
267 1 -1.1104 9.63452 8.55431 6.65825
105 2 2.2208 13.6324 7.09143 2.41625
232 2 2.2208 13.6352 9.94003 5.17816
266 1 -1.1104 12.1687 5.70868 6.44422
265 1 -1.1104 12.3602 8.51218 6.56901
106 2 2.2208 5.20822 18.261 5.1991
107 1 -1.1104 0.914961 14.1293 1.0924
109 1 -1.1104 1.06633 19.6418 1.02166
113 1 -1.1104 0.965229 14.1865 3.93098
114 1 -1.1104 0.968505 19.6394 3.8505
116 1 -1.1104 1.02926 16.8797 1.04592
119 2 2.2208 5.25364 15.4345 2.30515
120 2 2.2208 5.12597 21.005 2.41402
121 1 -1.1104 1.04673 16.8516 3.73035
123 1 -1.1104 3.71925 14.0861 0.939825
125 1 -1.1104 3.84356 19.7034 0.957772
127 2 2.2208 2.43487 18.1726 2.44008
128 1 -1.1104 3.85002 14.024 3.69773
129 1 -1.1104 3.85818 19.6836 3.82981
130 2 2.2208 2.47436 15.5873 5.17519
131 2 2.2208 2.32492 21.0459 5.16638
132 1 -1.1104 3.79551 16.8344 0.911003
134 1 -1.1104 3.852 16.8346 3.73222
138 1 -1.1104 6.54357 19.6275 1.02483
139 1 -1.1104 6.61493 19.6588 3.7852
110 1 -1.1104 6.60798 14.0663 1.05755
302 1 -1.1104 1.04083 19.6083 6.57486
117 1 -1.1104 1.00469 16.8876 6.55928
108 1 -1.1104 0.913828 14.0695 6.57095
124 1 -1.1104 3.83313 14.2184 6.60472
140 1 -1.1104 6.49115 16.7628 0.98482
115 1 -1.1104 6.70764 14.1239 3.88678
112 1 -1.1104 6.65829 19.6682 6.64235
126 1 -1.1104 3.85809 19.6835 6.62251
133 1 -1.1104 3.80542 16.901 6.52249
122 1 -1.1104 6.62318 16.8451 3.79214
111 1 -1.1104 6.61417 14.0605 6.63604
118 1 -1.1104 6.58627 16.8423 6.70672
165 2 2.2208 13.64 18.3105 2.57933
141 2 2.2208 10.7892 18.344 5.2717
142 1 -1.1104 12.1336 14.1429 1.06432
144 1 -1.1104 12.1634 19.6099 1.15792
146 1 -1.1104 12.3218 14.1468 3.89291
147 1 -1.1104 12.2687 19.7247 3.97951
148 1 -1.1104 12.2076 16.9292 1.14872
150 2 2.2208 10.7935 15.4794 2.5426
151 2 2.2208 10.8357 20.9951 2.44918
152 1 -1.1104 12.194 16.9614 3.93243
153 1 -1.1104 9.34295 14.1318 1.09887
155 1 -1.1104 9.45624 19.6347 1.00725
157 2 2.2208 8.00693 18.2754 2.3692
158 1 -1.1104 9.4079 13.9981 3.77406
159 1 -1.1104 9.33892 19.6535 3.83736
160 2 2.2208 7.97996 15.5458 5.17193
161 2 2.2208 8.01635 21.0862 5.26953
162 1 -1.1104 9.39673 16.8672 1.0193
164 1 -1.1104 9.42411 16.981 3.76535
156 1 -1.1104 9.39747 19.7284 6.66055
143 1 -1.1104 12.1142 14.0518 6.70453
231 2 2.2208 13.5779 21.0859 5.27294
204 2 2.2208 13.6366 15.5627 5.21535
163 1 -1.1104 9.34304 16.9428 6.50318
145 1 -1.1104 12.2212 19.8129 6.76807
154 1 -1.1104 9.33242 14.0829 6.5907
168 1 -1.1104 6.6215 -2.62756 6.65089
331 2 2.2208 10.7894 18.3632 10.8153
341 2 2.2208 5.23522 4.34363 13.6904
169 1 -1.1104 6.68256 2.94193 6.57737
172 1 -1.1104 3.78824 -2.67778 6.53494
175 2 2.2208 5.19138 1.56215 10.809
176 1 -1.1104 0.937502 -2.71217 12.1921
177 1 -1.1104 0.882871 2.86238 12.1579
180 1 -1.1104 0.999907 -2.63734 9.31516
181 1 -1.1104 1.13038 2.85492 9.49691
184 1 -1.1104 0.971528 0.0192501 12.1673
186 2 2.2208 5.18257 -1.25771 7.97267
187 2 2.2208 5.21376 4.29117 7.87111
188 1 -1.1104 1.01719 0.105062 9.35687
190 1 -1.1104 3.76475 -2.53529 12.2007
191 1 -1.1104 3.80926 2.98713 12.2357
192 2 2.2208 2.44447 1.61813 7.98589
193 1 -1.1104 3.80659 -2.61184 9.30232
194 1 -1.1104 3.8862 2.97891 9.34031
195 2 2.2208 2.37734 -1.33735 10.707
196 2 2.2208 2.49702 4.36898 10.7479
197 1 -1.1104 3.73003 0.239016 12.1165
198 1 -1.1104 3.79985 0.245042 9.42979
189 1 -1.1104 6.6049 0.136089 9.34147
185 1 -1.1104 6.57432 0.106972 12.1445
183 1 -1.1104 6.50907 2.96435 9.3541
179 1 -1.1104 6.58944 2.83764 12.2464
182 1 -1.1104 6.56177 -2.67998 9.43803
339 2 2.2208 2.39276 1.44754 13.5442
338 2 2.2208 5.25047 -1.26609 13.535
9049 2 2.2208 2.44219 -4.07427 13.6045
202 2 2.2208 13.6588 7.10102 7.99037
81 2 2.2208 -0.36479 7.24117 5.27881
229 2 2.2208 13.5959 1.59858 7.91814
346 2 2.2208 10.881 -1.20648 13.5993
178 1 -1.1104 6.57996 -2.58865 12.2652
203 2 2.2208 13.5836 4.35604 10.7363
343 2 2.2208 8.07929 1.5594 13.6321
230 2 2.2208 13.5809 -1.27807 10.8001
211 2 2.2208 10.7291 1.62481 10.7217
212 1 -1.1104 12.2479 -2.64721 12.2347
213 1 -1.1104 12.3031 3.02078 12.1088
214 1 -1.1104 12.0765 -2.62378 9.39567
215 1 -1.1104 12.1528 3.09031 9.29543
216 1 -1.1104 12.1246 0.205028 12.1186
217 2 2.2208 10.7446 -1.22101 8.03173
218 2 2.2208 10.7539 4.30824 7.96166
219 1 -1.1104 12.1227 0.231384 9.28239
220 1 -1.1104 9.43026 -2.58293 12.2893
221 1 -1.1104 9.49387 3.00999 12.1679
222 2 2.2208 7.94944 1.57494 7.93587
223 1 -1.1104 9.34597 -2.68453 9.42393
224 1 -1.1104 9.37901 2.88987 9.33854
225 2 2.2208 7.95916 -1.22011 10.7126
226 2 2.2208 7.96187 4.31703 10.7358
227 1 -1.1104 9.36109 0.229097 12.1549
228 1 -1.1104 9.34335 0.218107 9.38427
350 2 2.2208 10.8532 4.43873 13.5444
325 2 2.2208 10.7517 15.5286 8.08014
324 2 2.2208 10.8153 21.0139 8.07945
340 2 2.2208 13.6038 1.55776 13.5894
326 1 -1.1104 12.2733 16.9154 12.2829
234 1 -1.1104 1.15036 8.62543 6.59993
240 2 2.2208 5.30779 7.14421 10.77
241 2 2.2208 5.15158 12.768 10.8241
242 1 -1.1104 0.980799 8.52023 12.3123
244 1 -1.1104 1.01314 8.49716 9.57919
246 1 -1.1104 0.942007 5.68401 12.0896
247 1 -1.1104 1.06933 11.3087 12.0715
250 2 2.2208 5.18806 9.99297 7.91159
251 1 -1.1104 1.13967 5.69043 9.31831
252 1 -1.1104 0.940196 11.292 9.35108
255 1 -1.1104 3.85547 8.42005 12.1285
256 2 2.2208 2.47138 7.12784 8.01878
257 2 2.2208 2.4303 12.7933 7.94311
258 1 -1.1104 3.71019 8.60967 9.30568
259 2 2.2208 2.47998 9.87848 10.7693
260 1 -1.1104 3.88617 5.76356 12.2253
261 1 -1.1104 3.88354 11.223 12.1784
262 1 -1.1104 3.91066 5.74026 9.40741
263 1 -1.1104 3.7835 11.3351 9.25505
249 1 -1.1104 6.68112 11.5377 12.1579
352 2 2.2208 5.39921 9.97021 13.5988
353 2 2.2208 2.44571 12.6116 13.5104
52 2 2.2208 13.6538 9.99957 10.6776
101 1 -1.1104 9.42216 11.3081 6.50811
269 1 -1.1104 9.4184 5.77736 6.63072
253 1 -1.1104 6.61688 5.71682 9.39646
254 1 -1.1104 6.57506 11.3053 9.39243
248 1 -1.1104 6.74255 5.85868 12.3283
245 1 -1.1104 6.65076 8.61641 9.35294
243 1 -1.1104 6.70103 8.54786 12.1439
53 2 2.2208 13.6116 12.821 7.87167
356 2 2.2208 8.11217 12.7736 13.5569
354 2 2.2208 8.11144 7.19715 13.6319
264 1 -1.1104 9.34235 11.2893 9.38933
268 1 -1.1104 9.37771 5.70259 9.395
270 1 -1.1104 9.46405 11.4306 12.2446
271 1 -1.1104 9.48554 5.70084 12.216
272 2 2.2208 8.0228 9.97358 10.6988
273 1 -1.1104 9.45285 8.58095 9.41989
274 2 2.2208 8.10089 12.6578 7.98842
275 2 2.2208 8.05503 7.19137 7.96171
276 2 2.2208 10.9388 7.12751 10.7671
277 2 2.2208 10.7611 12.706 10.7865
278 1 -1.1104 12.2704 8.53998 12.1718
279 1 -1.1104 12.2849 8.52423 9.43123
280 1 -1.1104 12.2805 5.74931 12.1405
281 1 -1.1104 12.2812 11.3522 12.0918
282 2 2.2208 10.9155 9.86276 7.99171
283 1 -1.1104 12.0738 5.80117 9.30379
284 1 -1.1104 12.2445 11.2557 9.33713
285 1 -1.1104 9.45399 8.6169 12.1627
336 2 2.2208 13.6476 7.18988 13.5824
376 2 2.2208 13.6232 12.7763 13.5266
355 2 2.2208 10.9002 9.91524 13.5358
359 2 2.2208 5.17553 15.4302 13.5671
297 1 -1.1104 6.66603 14.2118 12.2462
288 1 -1.1104 6.62141 19.7077 9.44717
305 1 -1.1104 3.7473 14.0915 9.47659
300 2 2.2208 5.19008 18.3148 10.801
301 1 -1.1104 3.71437 19.8192 9.38533
304 1 -1.1104 3.83494 16.9569 9.36936
303 2 2.2208 2.3885 18.3022 7.98292
298 1 -1.1104 1.04291 19.7619 12.1081
310 2 2.2208 2.42709 15.4819 10.7299
295 2 2.2208 5.20591 15.5431 8.08902
309 2 2.2208 2.43499 21.1551 10.8393
308 1 -1.1104 3.76806 16.8096 12.1416
307 1 -1.1104 1.05646 16.9555 12.2891
299 1 -1.1104 1.15641 14.2011 12.0622
286 1 -1.1104 3.86353 19.6821 12.1518
287 1 -1.1104 3.87076 14.0617 12.1892
291 1 -1.1104 0.93935 19.8415 9.30591
292 1 -1.1104 1.09149 16.955 9.43786
293 2 2.2208 5.16062 21.0213 8.03332
294 1 -1.1104 1.03573 14.189 9.36105
357 2 2.2208 2.46227 18.2504 13.604
296 1 -1.1104 6.61597 19.705 12.2569
290 1 -1.1104 6.50617 14.2296 9.44207
306 1 -1.1104 6.60109 16.9145 12.211
358 2 2.2208 5.16096 21.0407 13.646
323 1 -1.1104 12.1359 16.8293 9.49522
149 1 -1.1104 12.232 16.8204 6.65935
328 1 -1.1104 12.3124 14.0973 9.47603
316 2 2.2208 8.0254 21.1026 10.765
289 1 -1.1104 6.65349 16.958 9.45982
9025 2 2.2208 8.05713 -4.06494 2.38057
363 2 2.2208 13.703 18.3258 13.6759
332 2 2.2208 13.6072 18.3245 8.02772
315 1 -1.1104 9.46794 16.9406 12.1918
318 1 -1.1104 9.49137 19.7091 9.50295
28 2 2.2208 13.6073 21.0504 10.8935
360 2 2.2208 10.7648 21.1712 13.6684
333 2 2.2208 13.6817 15.4561 10.8153
361 2 2.2208 10.8535 15.6027 13.5586
321 1 -1.1104 9.31804 19.6707 12.3238
329 1 -1.1104 12.1468 19.6276 12.2531
327 1 -1.1104 12.1937 19.6647 9.50491
330 1 -1.1104 12.2462 14.1193 12.2796
320 2 2.2208 8.00149 18.3593 8.03594
319 1 -1.1104 9.41875 14.1093 9.40881
314 1 -1.1104 9.44251 16.9857 9.38675
317 2 2.2208 8.05752 15.5627 10.8115
322 1 -1.1104 9.4783 14.1412 12.1294
351 2 2.2208 2.41913 7.16546 13.655
373 2 2.2208 2.38648 15.502 -0.407953
374 2 2.2208 5.17059 18.3172 -0.510004
345 2 2.2208 13.6389 21.0929 -0.430321
388 2 2.2208 5.21812 1.47192 16.4007
389 1 -1.1104 1.06329 -2.66882 17.7502
390 1 -1.1104 0.931508 2.86186 17.7093
393 1 -1.1104 1.20317 -2.66221 15.073
395 1 -1.1104 1.11481 2.92776 14.8906
401 1 -1.1104 0.908411 0.190188 17.8132
403 2 2.2208 5.26227 -1.26664 19.1521
404 2 2.2208 5.18154 4.28627 19.1705
405 1 -1.1104 1.03145 0.0422856 15.0562
409 1 -1.1104 3.7915 -2.73882 17.6178
410 1 -1.1104 3.7037 2.84359 17.8894
411 2 2.2208 2.34183 1.4812 19.1743
412 1 -1.1104 3.89442 -2.73882 14.8953
414 1 -1.1104 3.86896 2.87967 15.0631
416 2 2.2208 2.40093 -1.27933 16.4278
417 2 2.2208 2.33922 4.28502 16.4064
418 1 -1.1104 3.87754 0.149223 17.763
419 1 -1.1104 3.85305 0.00992497 14.9577
397 1 -1.1104 6.74823 -2.49812 15.0104
415 1 -1.1104 3.60878 2.9964 20.6376
391 1 -1.1104 6.63375 -2.65017 17.7906
392 1 -1.1104 6.66216 2.98 17.6764
398 1 -1.1104 6.66665 -2.63909 20.602
9187 2 2.2208 2.4951 -3.98087 19.1522
402 1 -1.1104 6.62791 0.202553 17.7797
407 1 -1.1104 6.72592 0.223144 14.8914
396 1 -1.1104 0.910295 2.90747 20.6228
524 1 -1.1104 12.256 16.8521 23.514
399 1 -1.1104 6.66195 3.01785 14.9868
428 2 2.2208 13.5974 1.56463 19.1472
623 2 2.2208 -0.43267 18.2681 21.9087
431 2 2.2208 10.8417 1.56926 16.395
432 1 -1.1104 12.1892 -2.67887 17.8684
433 1 -1.1104 12.2437 2.98586 17.7128
434 1 -1.1104 12.2215 -2.6949 14.9788
436 1 -1.1104 12.2215 3.00672 14.8764
438 1 -1.1104 12.1698 0.0443031 17.8102
439 2 2.2208 10.7302 -1.26718 19.1651
440 2 2.2208 10.803 4.32124 19.1315
441 1 -1.1104 12.2761 0.062068 15.012
443 1 -1.1104 9.43427 -2.70934 17.7978
444 1 -1.1104 9.43352 2.97521 17.7649
445 2 2.2208 7.96056 1.50532 19.1833
446 1 -1.1104 9.45747 -2.59804 15.0503
448 1 -1.1104 9.52647 2.97414 14.8974
450 2 2.2208 8.08831 -1.16385 16.3442
451 2 2.2208 8.00552 4.45528 16.3224
452 1 -1.1104 9.39711 0.197477 17.7457
453 1 -1.1104 9.58405 0.151743 14.9988
454 1 -1.1104 9.31659 0.109343 20.5156
442 1 -1.1104 12.1795 0.159362 20.5174
429 2 2.2208 13.6265 4.43855 16.4429
459 2 2.2208 13.618 -1.2819 16.4109
437 1 -1.1104 12.1435 3.03297 20.6118
449 1 -1.1104 9.35152 3.00451 20.5848
447 1 -1.1104 9.42369 -2.56822 20.619
464 2 2.2208 5.192 7.21544 16.4088
465 2 2.2208 5.28238 12.6192 16.3442
466 1 -1.1104 0.936271 8.53418 17.8169
468 1 -1.1104 0.911897 8.53388 15.0036
472 1 -1.1104 1.01198 5.69738 17.8909
473 1 -1.1104 0.90279 11.2991 17.8129
476 2 2.2208 5.04458 9.88753 19.2075
477 1 -1.1104 0.992701 5.87221 15.0282
479 1 -1.1104 1.0636 11.3101 14.8904
485 1 -1.1104 3.69125 8.47769 17.7474
486 2 2.2208 2.39893 7.07409 19.2566
487 2 2.2208 2.29592 12.6929 19.145
488 1 -1.1104 3.86958 8.57844 15.0937
490 2 2.2208 2.36001 9.89942 16.405
491 1 -1.1104 3.85964 5.66872 17.7482
492 1 -1.1104 3.76019 11.3055 17.7627
493 1 -1.1104 3.7423 5.70304 14.951
495 1 -1.1104 3.86209 11.273 14.9434
481 1 -1.1104 6.59799 5.8497 15.0932
480 1 -1.1104 0.867947 11.307 20.5811
489 1 -1.1104 3.69953 8.55454 20.556
478 1 -1.1104 0.958318 5.72292 20.6824
469 1 -1.1104 0.936305 8.48966 20.5648
496 1 -1.1104 3.62525 11.3591 20.5736
483 1 -1.1104 6.77638 11.3722 14.9365
467 1 -1.1104 6.57854 8.49259 17.7683
474 1 -1.1104 6.57293 5.65444 17.8779
470 1 -1.1104 6.71037 8.56686 14.9622
484 1 -1.1104 6.54097 11.199 20.5337
471 1 -1.1104 6.41039 8.39421 20.5231
9037 2 2.2208 10.8357 -4.11113 27.5901
482 1 -1.1104 6.57749 5.60773 20.5609
475 1 -1.1104 6.54118 11.1448 17.7463
500 2 2.2208 10.838 7.22955 16.4506
501 2 2.2208 10.892 12.8024 16.3345
502 1 -1.1104 12.3252 8.67435 17.8723
503 1 -1.1104 12.1592 8.57692 14.9991
505 1 -1.1104 12.3146 5.78154 17.8383
506 1 -1.1104 12.2581 11.4536 17.8095
507 2 2.2208 10.7191 9.86423 19.2037
508 1 -1.1104 12.2062 5.68839 15.1209
510 1 -1.1104 12.2216 11.4574 14.9247
512 1 -1.1104 9.45922 8.46261 17.7834
513 2 2.2208 7.96996 7.10871 19.1909
514 2 2.2208 8.0443 12.6448 19.1259
515 1 -1.1104 9.44392 8.50951 14.9599
517 2 2.2208 8.13112 9.94455 16.3828
518 1 -1.1104 9.37535 5.76984 17.7628
519 1 -1.1104 9.47941 11.3076 17.7084
520 1 -1.1104 9.44043 5.78688 15.0165
522 1 -1.1104 9.48236 11.3726 14.9654
521 1 -1.1104 9.48913 5.71719 20.5675
426 2 2.2208 13.6657 10.0215 16.3964
523 1 -1.1104 9.33379 11.1842 20.6367
509 1 -1.1104 12.2693 5.70822 20.6667
511 1 -1.1104 12.0677 11.2978 20.6155
504 1 -1.1104 12.1572 8.48225 20.622
650 2 2.2208 13.6337 12.6932 19.266
651 2 2.2208 13.649 7.19263 19.2017
527 2 2.2208 5.17695 18.3707 16.405
528 1 -1.1104 0.942201 14.0707 17.7138
529 1 -1.1104 0.936876 19.8398 17.8142
532 1 -1.1104 1.13752 14.1193 14.8561
534 1 -1.1104 0.958434 19.6358 14.945
540 1 -1.1104 1.11427 16.8714 17.8055
542 2 2.2208 5.24811 15.5512 19.179
543 2 2.2208 5.1635 21.0924 19.2289
544 1 -1.1104 1.01588 16.8479 14.9959
548 1 -1.1104 3.77518 14.0059 17.7614
549 1 -1.1104 3.73758 19.6816 17.866
550 2 2.2208 2.44686 18.2631 19.1753
551 1 -1.1104 3.88233 14.0084 14.9605
553 1 -1.1104 3.72487 19.7259 15.0284
555 2 2.2208 2.50347 15.4012 16.2793
556 2 2.2208 2.40753 21.1828 16.4018
557 1 -1.1104 3.90368 16.8555 17.6696
558 1 -1.1104 3.8691 16.994 14.9583
559 1 -1.1104 3.82966 17.0533 20.5616
546 1 -1.1104 6.77851 16.8586 15.0406
535 1 -1.1104 1.03333 19.7 20.6146
545 1 -1.1104 0.918319 16.9283 20.6482
554 1 -1.1104 3.88926 19.765 20.6292
537 1 -1.1104 6.55333 14.1151 20.6178
530 1 -1.1104 6.66239 14.0686 17.7747
547 1 -1.1104 6.71002 16.9309 20.6978
533 1 -1.1104 0.940972 14.1741 20.5968
552 1 -1.1104 3.76785 14.1947 20.5762
539 1 -1.1104 6.69827 19.7483 20.6475
536 1 -1.1104 6.62125 14.0872 15.0131
538 1 -1.1104 6.53505 19.6609 15.0536
618 2 2.2208 13.6386 18.2375 19.2297
531 1 -1.1104 6.52869 19.584 17.81
541 1 -1.1104 6.60475 16.7835 17.8551
579 1 -1.1104 9.38843 14.1274 20.5719
563 2 2.2208 10.8116 18.3671 16.306
564 1 -1.1104 12.2993 14.1842 17.8792
565 1 -1.1104 12.2837 19.6653 17.8201
566 1 -1.1104 12.2017 14.3065 15.0256
568 1 -1.1104 12.2044 19.9317 15.0528
570 1 -1.1104 12.2524 17.0346 17.8589
571 2 2.2208 10.9263 15.4322 19.2145
572 2 2.2208 10.806 20.9477 19.1433
573 1 -1.1104 12.2517 17.0862 15.0827
575 1 -1.1104 9.54125 14.1538 17.795
576 1 -1.1104 9.29309 19.6873 17.7967
577 2 2.2208 7.97493 18.3069 19.2049
578 1 -1.1104 9.46514 14.257 15.1013
580 1 -1.1104 9.30852 19.7417 15.1048
582 2 2.2208 7.9905 15.4769 16.4103
583 2 2.2208 7.89628 21.0251 16.4095
584 1 -1.1104 9.33893 17.0042 17.8267
585 1 -1.1104 9.55468 16.8928 14.9616
567 1 -1.1104 12.1722 14.0645 20.6626
619 2 2.2208 13.6561 15.5296 16.4104
460 2 2.2208 13.6762 21.0509 16.4984
574 1 -1.1104 12.2073 16.9232 20.649
581 1 -1.1104 9.49909 19.5996 20.5707
569 1 -1.1104 12.2889 19.6858 20.5633
366 2 2.2208 2.36873 4.30286 27.6823
413 1 -1.1104 3.84061 -2.7167 20.5099
400 1 -1.1104 6.49781 2.83749 20.4833
646 2 2.2208 -0.422193 15.5021 24.8145
420 1 -1.1104 3.78567 0.0814339 20.5203
394 1 -1.1104 1.06503 -2.59213 20.5991
406 1 -1.1104 0.956805 0.105536 20.5952
591 2 2.2208 5.22211 1.51346 21.964
592 1 -1.1104 1.00413 -2.70336 23.4387
593 1 -1.1104 0.970296 2.9876 23.4312
596 1 -1.1104 1.05038 -2.63906 26.1683
597 1 -1.1104 0.918467 3.0454 26.2464
600 1 -1.1104 0.99947 0.24264 23.3489
602 2 2.2208 5.20262 -1.30724 24.7428
603 2 2.2208 5.18684 4.37392 24.7819
604 1 -1.1104 1.02826 0.211144 26.1755
606 1 -1.1104 3.81512 -2.67589 23.3876
607 1 -1.1104 3.87901 2.89813 23.444
608 2 2.2208 2.38578 1.52758 24.869
609 1 -1.1104 3.81646 -2.62825 26.2427
610 1 -1.1104 3.73653 2.98154 26.1951
611 2 2.2208 2.40963 -1.2469 21.9621
612 2 2.2208 2.35249 4.30672 22.0939
613 1 -1.1104 3.7704 0.0905663 23.3387
614 1 -1.1104 3.79352 0.238012 26.2207
605 1 -1.1104 6.67168 -0.0182162 26.1352
601 1 -1.1104 6.59081 0.184719 23.4391
594 1 -1.1104 6.55012 -2.65719 23.3628
365 2 2.2208 2.36674 -1.24914 27.5912
408 1 -1.1104 6.62037 0.138387 20.7073
599 1 -1.1104 6.57723 2.89859 26.0993
598 1 -1.1104 6.65327 -2.71111 26.0581
435 1 -1.1104 12.1381 -2.66804 20.6884
370 2 2.2208 8.01564 -1.32746 27.5493
595 1 -1.1104 6.5714 2.92526 23.3179
378 2 2.2208 13.648 4.34447 27.5485
616 2 2.2208 8.10625 21.0723 21.9768
377 2 2.2208 13.6264 -1.31356 27.5839
423 2 2.2208 13.6221 4.40969 22.0879
627 2 2.2208 10.876 1.63364 22.0122
628 1 -1.1104 12.1702 -2.62641 23.4286
629 1 -1.1104 12.2537 2.94786 23.4441
630 1 -1.1104 12.2663 -2.6237 26.1376
631 1 -1.1104 12.2975 2.87636 26.2535
632 1 -1.1104 12.2464 0.230581 23.3884
633 2 2.2208 10.7954 -1.1921 24.8008
634 2 2.2208 10.7852 4.29164 24.7989
635 1 -1.1104 12.3399 0.158515 26.1721
636 1 -1.1104 9.38471 -2.73615 23.3889
637 1 -1.1104 9.43821 2.97361 23.4247
638 2 2.2208 7.96081 1.51307 24.78
639 1 -1.1104 9.49257 -2.62522 26.1868
640 1 -1.1104 9.39221 2.81123 26.1885
641 2 2.2208 7.97916 -1.27396 22.0367
642 2 2.2208 7.9949 4.31544 21.8887
643 1 -1.1104 9.41107 0.145392 23.4293
644 1 -1.1104 9.43822 0.104536 26.1518
654 2 2.2208 13.596 1.5541 24.8338
369 2 2.2208 10.876 1.54117 27.6312
494 1 -1.1104 3.66847 5.72478 20.5714
381 2 2.2208 5.17378 12.7433 27.5874
379 2 2.2208 5.18767 7.09585 27.6283
656 2 2.2208 5.12302 7.08236 21.8868
657 2 2.2208 5.15146 12.7365 21.8498
658 1 -1.1104 0.903958 8.51372 23.3771
660 1 -1.1104 1.01829 8.52938 26.1605
662 1 -1.1104 1.0634 5.81149 23.4526
663 1 -1.1104 0.881559 11.3299 23.2816
666 2 2.2208 5.16878 9.94319 24.7675
667 1 -1.1104 1.09495 5.78919 26.1918
668 1 -1.1104 1.08259 11.2965 26.2379
671 1 -1.1104 3.78507 8.55619 23.3083
672 2 2.2208 2.41593 7.13004 24.8056
673 2 2.2208 2.30893 12.6885 24.7813
674 1 -1.1104 3.82943 8.5775 26.145
675 2 2.2208 2.35692 9.90508 22.0463
676 1 -1.1104 3.74436 5.67325 23.4461
677 1 -1.1104 3.7003 11.2699 23.3112
678 1 -1.1104 3.78431 5.73393 26.1648
679 1 -1.1104 3.77676 11.3127 26.1672
661 1 -1.1104 6.51153 8.61058 26.255
670 1 -1.1104 6.59483 11.3844 26.1401
659 1 -1.1104 6.51249 8.37526 23.3238
380 2 2.2208 2.40631 9.8896 27.5899
664 1 -1.1104 6.57022 5.60508 23.3578
669 1 -1.1104 6.67498 5.70518 26.1945
665 1 -1.1104 6.52804 11.2713 23.4012
384 2 2.2208 10.7654 7.18853 27.5722
516 1 -1.1104 9.22267 8.52379 20.5654
710 2 2.2208 13.5813 7.06203 24.7941
422 2 2.2208 13.5135 9.94266 22.0502
497 1 -1.1104 12.1747 19.6392 23.4138
687 1 -1.1104 9.42585 11.2808 26.212
688 1 -1.1104 9.39983 5.73906 26.1906
689 1 -1.1104 9.24947 11.2413 23.5018
690 1 -1.1104 9.3839 5.73694 23.3497
691 2 2.2208 7.89232 9.86205 22.0162
692 1 -1.1104 9.35138 8.57987 26.2559
693 2 2.2208 8.00262 12.707 24.9384
694 2 2.2208 7.98294 7.13342 24.7641
695 2 2.2208 10.8495 7.05896 22.0153
696 2 2.2208 10.6491 12.6571 22.0424
697 1 -1.1104 12.1626 8.50243 23.4072
698 1 -1.1104 12.1898 8.43808 26.258
699 1 -1.1104 12.1651 5.65379 23.4792
700 1 -1.1104 12.1353 11.2715 23.4067
701 2 2.2208 10.7691 9.91586 24.8161
702 1 -1.1104 12.2056 5.68779 26.2457
703 1 -1.1104 12.1899 11.321 26.1983
704 1 -1.1104 9.31775 8.51073 23.442
385 2 2.2208 7.94385 9.95578 27.6004
386 2 2.2208 10.8625 12.7227 27.6909
387 2 2.2208 13.5279 9.81293 27.5277
375 2 2.2208 2.49046 21.0599 27.6227
9120 2 2.2208 13.5755 -3.98642 24.7985
9121 2 2.2208 2.41792 -4.00411 24.811
712 1 -1.1104 6.61459 14.1487 26.1676
588 1 -1.1104 6.61091 19.6456 26.1652
647 2 2.2208 2.40555 15.5509 21.9959
649 2 2.2208 2.3762 21.0585 21.9939
652 1 -1.1104 3.92117 16.9726 23.4501
655 1 -1.1104 1.07767 16.983 23.3862
681 1 -1.1104 3.8152 14.0698 26.1191
682 1 -1.1104 3.83331 16.7936 26.1396
683 2 2.2208 2.43683 18.3754 24.7359
686 1 -1.1104 3.85119 19.7189 26.1357
705 2 2.2208 5.20361 18.3579 22.016
706 1 -1.1104 0.942095 14.1852 23.3928
707 1 -1.1104 0.948752 19.6467 23.3737
711 1 -1.1104 3.78588 19.7524 23.3235
713 1 -1.1104 3.77676 14.115 23.3084
715 1 -1.1104 0.9942 19.7981 26.2064
716 1 -1.1104 1.01555 16.9452 26.2111
717 1 -1.1104 0.901228 14.1003 26.1069
719 2 2.2208 5.3119 21.1392 24.8214
720 2 2.2208 5.24795 15.5199 24.7231
714 1 -1.1104 6.5512 16.9008 26.2582
680 1 -1.1104 6.64946 16.9685 23.4043
709 1 -1.1104 6.6101 14.0548 23.3627
718 1 -1.1104 6.70444 19.7293 23.4363
347 2 2.2208 7.91343 15.5189 27.7018
586 1 -1.1104 9.40775 16.9278 20.5437
560 1 -1.1104 12.1951 16.8279 26.323
526 2 2.2208 10.7775 21.0002 24.8819
348 2 2.2208 10.9161 18.2088 27.7028
615 2 2.2208 8.01693 15.5219 21.9642
462 2 2.2208 10.8356 18.2557 21.9891
590 1 -1.1104 9.47474 19.6263 26.2925
349 2 2.2208 7.98226 21.074 27.6673
463 1 -1.1104 12.2438 14.0933 23.4387
461 2 2.2208 13.6389 21.0397 22.0726
9041 2 2.2208 5.1995 -4.09775 27.6282
498 1 -1.1104 12.2048 14.0981 26.2982
561 1 -1.1104 9.43705 14.0418 23.5204
525 2 2.2208 10.8033 15.4297 24.8654
620 1 -1.1104 9.43353 16.9728 26.1752
617 1 -1.1104 9.5043 16.8368 23.4387
562 1 -1.1104 9.49431 19.7011 23.3765
499 1 -1.1104 12.1843 19.626 26.352
587 2 2.2208 8.07395 18.3628 24.8245
589 1 -1.1104 9.38308 14.1018 26.234
458 2 2.2208 -0.398259 21.1002 19.1443
9157 2 2.2208 7.98152 -4.037 19.1854
364 2 2.2208 5.25079 1.57726 27.5747
372 2 2.2208 7.98251 4.37086 27.4788
362 2 2.2208 7.97932 18.2106 13.614
721 2 2.2208 5.23245 23.8595 5.25134
722 2 2.2208 5.24204 29.541 5.16209
723 1 -1.1104 0.950545 25.2875 1.07949
724 1 -1.1104 0.877551 25.312 3.77655
725 1 -1.1104 1.0057 22.4579 0.907589
726 1 -1.1104 1.0653 28.0779 0.929703
727 2 2.2208 5.2902 26.6209 2.44382
728 1 -1.1104 0.913291 22.4438 3.72034
729 1 -1.1104 1.05434 28.1506 3.76305
730 1 -1.1104 3.85304 25.2585 1.07783
731 2 2.2208 2.36233 23.9316 2.40321
732 2 2.2208 2.37485 29.4548 2.31561
733 1 -1.1104 3.84156 25.3162 3.84915
734 2 2.2208 2.42094 26.8161 5.07215
735 1 -1.1104 3.88897 22.4653 0.996233
736 1 -1.1104 3.91072 28.0436 0.967408
737 1 -1.1104 3.67308 22.4553 3.74678
738 1 -1.1104 3.8126 28.1142 3.80651
744 1 -1.1104 6.66987 22.366 1.11274
745 1 -1.1104 6.62108 27.9848 1.0273
742 1 -1.1104 6.70976 25.2644 1.04088
743 1 -1.1104 6.69247 25.1908 3.85048
746 1 -1.1104 6.54921 22.3659 3.93207
870 1 -1.1104 3.78842 28.2109 6.55198
869 1 -1.1104 3.75404 22.4538 6.51735
866 1 -1.1104 6.58858 22.4314 6.61242
868 1 -1.1104 3.79177 25.3011 6.53186
862 1 -1.1104 0.960891 25.1781 6.52727
864 1 -1.1104 1.00094 22.417 6.60759
867 1 -1.1104 6.54973 28.0571 6.52316
865 1 -1.1104 1.04507 28.02 6.62198
1660 1 -1.1104 9.49872 47.5275 12.2453
747 1 -1.1104 6.65876 28.1441 3.76374
863 1 -1.1104 6.67295 25.2633 6.52787
748 2 2.2208 10.899 23.9412 5.25553
749 2 2.2208 10.7782 29.5067 5.08206
750 1 -1.1104 12.1704 25.2692 0.953703
751 1 -1.1104 12.2955 25.2777 3.77695
752 1 -1.1104 12.3292 22.3733 1.00536
753 1 -1.1104 12.2726 28.1722 1.05037
754 2 2.2208 10.9675 26.6929 2.47912
755 1 -1.1104 12.1429 22.5166 3.8147
756 1 -1.1104 12.1822 28.1166 3.82196
757 1 -1.1104 9.45595 25.3104 1.02486
758 2 2.2208 8.02725 23.8633 2.60538
759 2 2.2208 8.09935 29.5612 2.35099
760 1 -1.1104 9.45532 25.2826 3.9484
761 2 2.2208 7.98014 26.6954 5.2427
762 1 -1.1104 9.42509 22.4274 1.16844
763 1 -1.1104 9.42598 28.0747 0.953119
764 1 -1.1104 9.36389 22.4672 3.9127
765 1 -1.1104 9.32435 28.0771 3.84841
900 1 -1.1104 9.39923 28.1849 6.63741
897 1 -1.1104 12.2113 28.1727 6.58199
766 2 2.2208 13.676 23.8258 2.48847
896 1 -1.1104 12.1828 22.5145 6.69814
895 1 -1.1104 12.3401 25.3243 6.70363
898 1 -1.1104 9.44588 25.3988 6.66951
899 1 -1.1104 9.39865 22.5734 6.74606
768 2 2.2208 13.5877 26.7718 5.21863
1010 1 -1.1104 9.36783 44.6397 12.2921
769 2 2.2208 5.21547 35.1877 5.1968
770 1 -1.1104 1.06392 30.8991 1.01596
771 1 -1.1104 1.09985 36.4524 0.995589
773 1 -1.1104 1.01378 30.982 3.87301
774 1 -1.1104 1.06186 36.5368 3.71859
776 1 -1.1104 1.09581 33.6822 1.12785
777 2 2.2208 5.19296 32.2748 2.38175
778 2 2.2208 5.23278 37.9326 2.50445
779 1 -1.1104 0.906568 33.862 3.91258
781 1 -1.1104 3.81508 30.9205 0.97615
782 1 -1.1104 3.82644 36.5513 1.07898
783 2 2.2208 2.40258 35.1365 2.48109
784 1 -1.1104 3.75443 30.8106 3.77284
785 1 -1.1104 3.77419 36.4666 3.86069
786 2 2.2208 2.40374 32.367 5.21878
787 2 2.2208 2.33508 37.9567 5.27974
788 1 -1.1104 3.81049 33.6562 1.10476
789 1 -1.1104 3.7961 33.7177 3.82488
922 1 -1.1104 6.47948 36.492 6.57224
925 1 -1.1104 3.85121 30.9433 6.60585
794 1 -1.1104 6.65502 30.9486 3.84679
780 1 -1.1104 6.57224 33.783 3.79403
926 1 -1.1104 3.68666 36.6288 6.61833
919 1 -1.1104 1.06184 30.9437 6.58168
927 1 -1.1104 3.82032 33.8685 6.59266
923 1 -1.1104 0.851722 33.7215 6.69967
795 1 -1.1104 6.66315 33.6564 1.00778
920 1 -1.1104 0.833337 36.4725 6.61085
772 1 -1.1104 6.56686 36.5808 1.14744
775 1 -1.1104 6.64141 36.511 3.79052
924 1 -1.1104 6.55796 33.6546 6.56605
921 1 -1.1104 6.72292 30.9304 6.61991
793 1 -1.1104 6.67669 30.829 0.973084
1033 2 2.2208 13.5455 32.4013 5.24803
814 2 2.2208 13.672 35.1177 2.40535
796 2 2.2208 10.9305 35.191 5.3895
797 1 -1.1104 12.4427 30.9668 1.05601
798 1 -1.1104 12.1479 36.5261 1.09546
799 1 -1.1104 12.1682 30.863 3.71268
800 1 -1.1104 12.2128 36.5024 3.93649
801 1 -1.1104 12.1652 33.7837 1.00065
802 2 2.2208 10.8982 32.3566 2.42845
803 2 2.2208 10.7678 37.9228 2.47568
804 1 -1.1104 12.2253 33.7215 3.81149
805 1 -1.1104 9.56759 30.8175 0.863717
806 1 -1.1104 9.38866 36.5562 1.0575
807 2 2.2208 8.08226 35.1577 2.50955