ITEM: TIMESTEP
50000
ITEM: NUMBER OF ATOMS
17670
ITEM: BOX BOUNDS pp pp pp
-3.6290862133361029e-01 2.7702908621334011e+01
-4.1393800106365397e+00 3.3221938001063495e+02
-3.4801923453953726e-01 2.7688019234539130e+01
ITEM: ATOMS id type q x y z
1 2 2.2208 5.11307 1.45879 5.05941
2 1 -1.1104 0.943265 -2.78223 1.005
3 1 -1.1104 0.904881 2.78082 0.749525
6 1 -1.1104 1.16213 -2.66813 3.79063
7 1 -1.1104 0.896266 2.70862 3.56899
10 1 -1.1104 0.945199 -0.0177708 0.762724
12 2 2.2208 5.20962 -1.2034 2.21815
13 2 2.2208 5.08784 4.17003 2.22381
14 1 -1.1104 0.904736 -0.0344554 3.63292
16 1 -1.1104 3.80563 -2.82484 0.78826
17 1 -1.1104 3.72522 2.77591 0.877698
18 2 2.2208 2.34043 1.4285 2.33893
19 1 -1.1104 3.955 -2.74569 3.7276
20 1 -1.1104 3.60955 2.87336 3.66898
21 2 2.2208 2.41841 -1.26667 5.15487
22 2 2.2208 2.43718 4.24367 5.10927
23 1 -1.1104 3.6722 0.159891 0.917949
24 1 -1.1104 3.71134 0.032104 3.65401
173 1 -1.1104 3.77118 2.84259 6.46056
172 1 -1.1104 4.02025 -2.74103 6.53852
11 1 -1.1104 6.47578 0.18667 1.02088
5 1 -1.1104 6.46707 2.8487 0.804871
170 1 -1.1104 0.764915 -0.0916852 6.57105
167 1 -1.1104 1.05963 2.75954 6.31536
9 1 -1.1104 6.36177 2.79428 3.60119
4 1 -1.1104 6.57253 -2.75804 0.908683
15 1 -1.1104 6.69584 0.162634 3.70613
171 1 -1.1104 6.70338 0.088767 6.57544
168 1 -1.1104 6.70317 -2.83214 6.51318
174 1 -1.1104 3.82508 0.0571479 6.50695
357 2 2.2208 2.26411 18.2403 13.461
169 1 -1.1104 6.59572 2.92268 6.52474
350 2 2.2208 10.892 4.23518 13.5136
232 2 2.2208 13.5174 9.82939 5.01795
8 1 -1.1104 6.63201 -2.62092 3.70474
31 2 2.2208 10.8525 1.55933 5.20486
32 1 -1.1104 12.1349 -2.74233 0.889692
33 1 -1.1104 12.0929 2.79942 0.869442
34 1 -1.1104 12.3112 -2.68031 3.75136
35 1 -1.1104 12.112 2.78478 3.74195
36 1 -1.1104 12.1889 0.123287 0.941842
37 2 2.2208 10.7097 -1.36639 2.34888
39 1 -1.1104 12.2765 0.0679431 3.76053
40 1 -1.1104 9.3481 -2.75392 1.0205
41 1 -1.1104 9.16614 2.77138 0.798299
42 2 2.2208 7.8704 1.49044 2.23017
43 1 -1.1104 9.53493 -2.72325 3.77659
44 1 -1.1104 9.29361 2.94626 3.63606
45 2 2.2208 7.97677 -1.24429 5.15854
46 2 2.2208 7.96631 4.15066 5.17199
47 1 -1.1104 9.34586 0.0373854 0.92885
48 1 -1.1104 9.47766 0.193068 3.80544
38 2 2.2208 10.7937 4.17837 2.36734
208 1 -1.1104 9.44075 -2.68429 6.47129
207 1 -1.1104 12.3149 0.0999932 6.49403
210 1 -1.1104 9.37953 0.112556 6.54249
50 2 2.2208 13.7019 -1.28225 5.20983
8994 2 2.2208 5.23149 -4.18299 4.96744
205 1 -1.1104 12.3676 -2.76083 6.57945
354 2 2.2208 8.0213 6.98282 13.5151
341 2 2.2208 5.26321 4.23117 13.5456
363 2 2.2208 13.528 18.2643 13.4702
54 2 2.2208 5.2667 7.05838 5.12587
55 2 2.2208 5.19852 12.6587 5.25231
56 1 -1.1104 0.699778 8.20147 0.963606
58 1 -1.1104 1.0373 8.45745 3.68458
60 1 -1.1104 1.0502 5.49707 0.980119
61 1 -1.1104 1.01925 11.0464 0.989897
66 2 2.2208 5.07765 9.87531 2.4372
67 1 -1.1104 0.997299 5.52926 3.66522
68 1 -1.1104 0.958162 11.0879 3.66077
71 1 -1.1104 3.67609 8.35257 0.922466
72 2 2.2208 2.40522 6.95334 2.28164
73 2 2.2208 2.42319 12.5391 2.28796
74 1 -1.1104 3.74309 8.42714 3.62114
75 2 2.2208 2.30486 9.84498 5.10863
76 1 -1.1104 3.89634 5.66733 0.950641
77 1 -1.1104 3.87623 11.1881 0.910172
79 1 -1.1104 3.91083 5.7484 3.63699
80 1 -1.1104 3.81752 11.2178 3.73543
62 1 -1.1104 1.13218 11.3212 6.55982
234 1 -1.1104 0.981467 8.50109 6.51615
238 1 -1.1104 4.02372 8.40128 6.42961
57 1 -1.1104 6.47894 8.4505 0.9591
236 1 -1.1104 0.992065 5.80248 6.53187
78 1 -1.1104 3.84998 11.2138 6.49725
59 1 -1.1104 6.67513 8.40372 3.76364
64 1 -1.1104 6.4599 11.2676 0.810019
69 1 -1.1104 6.59554 5.63752 3.7526
70 1 -1.1104 6.604 11.2337 3.73304
63 1 -1.1104 6.69232 5.71174 0.829363
65 1 -1.1104 6.52048 11.1888 6.57713
235 1 -1.1104 6.61694 8.36717 6.56539
237 1 -1.1104 6.6339 5.56613 6.4374
165 2 2.2208 13.5191 18.2397 2.47357
333 2 2.2208 13.5843 15.5068 10.8001
84 2 2.2208 10.7834 7.11329 5.12318
85 2 2.2208 10.7497 12.6076 5.06956
86 1 -1.1104 12.1563 8.53239 0.872541
87 1 -1.1104 12.2128 8.51656 3.72252
88 1 -1.1104 12.2139 5.63328 0.925999
89 1 -1.1104 12.2281 11.2546 0.755352
91 2 2.2208 10.7836 9.89156 2.2647
92 1 -1.1104 12.2618 5.71428 3.74917
93 1 -1.1104 12.2768 11.2343 3.62949
94 1 -1.1104 9.29836 8.39416 0.953917
95 2 2.2208 7.94631 7.04125 2.41178
96 2 2.2208 7.89451 12.5906 2.27337
97 1 -1.1104 9.42751 8.39638 3.90414
98 2 2.2208 8.15289 9.91995 5.19388
99 1 -1.1104 9.44954 5.5011 1.00872
100 1 -1.1104 9.25425 11.2601 0.972484
102 1 -1.1104 9.55491 5.82104 3.79932
103 1 -1.1104 9.4184 11.186 3.68806
101 1 -1.1104 9.40717 11.354 6.44584
90 1 -1.1104 12.2206 11.2824 6.36953
269 1 -1.1104 9.44879 5.5722 6.4901
321 1 -1.1104 9.17947 19.5509 12.1954
104 2 2.2208 13.5385 12.6054 2.28305
266 1 -1.1104 12.464 5.72169 6.43652
323 1 -1.1104 12.1248 16.8105 9.2669
296 1 -1.1104 6.50489 19.8078 12.1422
359 2 2.2208 5.05868 15.5584 13.5179
106 2 2.2208 5.20311 18.2302 5.11838
107 1 -1.1104 1.01668 13.9207 0.980409
109 1 -1.1104 0.992573 19.6596 1.01583
113 1 -1.1104 1.06403 13.8201 3.74007
114 1 -1.1104 0.971161 19.4493 3.67914
116 1 -1.1104 0.987647 16.9701 0.934481
119 2 2.2208 5.14926 15.4067 2.45499
120 2 2.2208 5.22919 21.0638 2.46985
121 1 -1.1104 0.918393 16.7039 3.85942
123 1 -1.1104 3.79447 13.9503 0.88766
125 1 -1.1104 3.76454 19.5756 0.914965
127 2 2.2208 2.45332 18.185 2.32936
128 1 -1.1104 3.75863 14.0129 3.80491
129 1 -1.1104 3.71085 19.6188 3.77266
130 2 2.2208 2.29748 15.3453 5.17987
131 2 2.2208 2.31278 20.991 5.07274
132 1 -1.1104 3.79086 16.7609 0.947707
134 1 -1.1104 3.78746 16.8179 3.64824
124 1 -1.1104 3.73549 14.0376 6.52312
108 1 -1.1104 0.879689 14.0867 6.55165
133 1 -1.1104 3.68088 16.7926 6.42641
115 1 -1.1104 6.59389 13.9432 3.72551
126 1 -1.1104 3.78903 19.7076 6.43853
138 1 -1.1104 6.50999 19.5594 0.999129
112 1 -1.1104 6.64214 19.5999 6.54095
140 1 -1.1104 6.5708 16.8974 0.940422
122 1 -1.1104 6.5371 16.8954 3.72828
111 1 -1.1104 6.50806 13.9193 6.60947
117 1 -1.1104 0.854164 16.8668 6.57835
302 1 -1.1104 0.949782 19.7028 6.48607
340 2 2.2208 13.5789 1.40745 13.5731
110 1 -1.1104 6.4974 14.2039 0.919571
139 1 -1.1104 6.43602 19.7166 3.79021
154 1 -1.1104 9.25429 14.0892 6.58712
141 2 2.2208 10.7663 18.2965 5.06843
142 1 -1.1104 12.2191 14.0092 0.940853
144 1 -1.1104 12.0099 19.6576 1.09824
146 1 -1.1104 12.2443 13.9029 3.71082
147 1 -1.1104 12.0247 19.6867 3.7812
148 1 -1.1104 12.1043 16.8151 0.87978
150 2 2.2208 10.7963 15.3561 2.32455
151 2 2.2208 10.49 21.0689 2.4034
152 1 -1.1104 12.2139 16.7839 3.76961
153 1 -1.1104 9.26964 13.9122 0.90577
155 1 -1.1104 9.32354 19.7527 1.08409
157 2 2.2208 7.99903 18.1933 2.45393
158 1 -1.1104 9.44675 13.8895 3.71526
159 1 -1.1104 9.33542 19.6629 3.80484
160 2 2.2208 7.91082 15.438 5.21721
161 2 2.2208 7.83417 21.1064 5.17291
162 1 -1.1104 9.45328 16.8407 1.06483
164 1 -1.1104 9.38351 16.8579 3.84244
143 1 -1.1104 12.0761 13.9761 6.39151
156 1 -1.1104 9.41925 19.7271 6.62499
145 1 -1.1104 12.0848 19.6623 6.5786
118 1 -1.1104 6.47937 16.765 6.56151
163 1 -1.1104 9.26788 16.8404 6.51961
326 1 -1.1104 12.1476 16.8499 12.0546
320 2 2.2208 7.91903 18.3212 7.93546
360 2 2.2208 10.7541 20.937 13.6809
362 2 2.2208 7.78207 18.1945 13.5602
315 1 -1.1104 9.22401 16.6538 12.2566
351 2 2.2208 2.39829 7.09079 13.4253
328 1 -1.1104 12.2305 14.1377 9.41408
149 1 -1.1104 12.1796 16.8512 6.45962
166 1 -1.1104 1.07741 -2.75739 6.66815
175 2 2.2208 5.1529 1.44171 10.7416
176 1 -1.1104 0.953354 -2.77978 12.2647
177 1 -1.1104 0.870303 2.81917 12.2153
180 1 -1.1104 0.961267 -2.76051 9.40219
181 1 -1.1104 0.890177 2.90087 9.3227
184 1 -1.1104 0.705875 0.0663682 12.0545
186 2 2.2208 5.31264 -1.37837 7.92394
187 2 2.2208 5.28717 4.20205 7.95888
188 1 -1.1104 1.12072 -0.0102365 9.31338
190 1 -1.1104 3.75535 -2.75294 12.099
191 1 -1.1104 3.79246 2.99749 12.1442
192 2 2.2208 2.33846 1.49121 7.91013
193 1 -1.1104 3.84562 -2.56158 9.29973
194 1 -1.1104 3.66956 2.9082 9.38734
195 2 2.2208 2.35218 -1.33193 10.678
196 2 2.2208 2.33517 4.17794 10.8053
197 1 -1.1104 3.52577 0.036143 12.0433
198 1 -1.1104 3.99592 0.178097 9.19502
183 1 -1.1104 6.6698 2.78577 9.39421
189 1 -1.1104 6.69884 0.00498452 9.4213
179 1 -1.1104 6.54647 2.77667 12.1855
185 1 -1.1104 6.51968 -0.0538498 12.1649
178 1 -1.1104 6.60959 -2.82506 12.0462
182 1 -1.1104 6.72939 -2.72189 9.36572
52 2 2.2208 13.6188 9.87289 10.6775
229 2 2.2208 13.57 1.52556 7.93238
9020 2 2.2208 2.4215 -4.09442 13.5238
206 1 -1.1104 12.2959 2.95997 6.42213
343 2 2.2208 8.05507 1.50274 13.4888
327 1 -1.1104 12.1981 19.767 9.33575
209 1 -1.1104 9.50605 2.83458 6.57513
211 2 2.2208 10.8822 1.52449 10.7995
212 1 -1.1104 12.3163 -2.50982 12.2795
213 1 -1.1104 12.2302 2.92885 12.0911
214 1 -1.1104 12.1031 -2.82095 9.43062
215 1 -1.1104 12.2588 2.99616 9.40252
216 1 -1.1104 12.3964 0.234734 11.895
217 2 2.2208 10.8041 -1.30882 7.82137
218 2 2.2208 10.8256 4.37826 7.96454
219 1 -1.1104 12.1984 0.02577 9.26902
220 1 -1.1104 9.47444 -2.69669 12.0572
221 1 -1.1104 9.40676 2.82271 12.1748
222 2 2.2208 8.05622 1.43064 7.97069
223 1 -1.1104 9.39641 -2.74513 9.35347
224 1 -1.1104 9.46586 2.85519 9.31309
225 2 2.2208 8.08113 -1.37076 10.7227
226 2 2.2208 8.01941 4.21204 10.6607
227 1 -1.1104 9.47808 0.0256752 12.2555
228 1 -1.1104 9.43441 0.0755862 9.38041
28 2 2.2208 13.5641 21.127 10.8387
322 1 -1.1104 9.34726 13.8769 12.1784
353 2 2.2208 2.24528 12.6472 13.5033
346 2 2.2208 10.6932 -1.42484 13.5905
239 1 -1.1104 3.89678 5.61483 6.48474
325 2 2.2208 10.7909 15.3631 7.9747
240 2 2.2208 5.21177 7.12274 10.7285
241 2 2.2208 5.15816 12.6206 10.7043
242 1 -1.1104 0.829269 8.35013 12.1979
244 1 -1.1104 1.21665 8.2655 9.35485
246 1 -1.1104 1.0122 5.54907 12.0796
247 1 -1.1104 0.946448 11.1576 12.1368
250 2 2.2208 5.18998 9.81094 7.82757
251 1 -1.1104 0.980418 5.58451 9.3001
252 1 -1.1104 0.946768 11.2315 9.3816
255 1 -1.1104 3.72416 8.46561 12.2076
256 2 2.2208 2.49388 6.99964 7.94832
257 2 2.2208 2.34767 12.7045 7.89571
258 1 -1.1104 3.81228 8.53418 9.25683
259 2 2.2208 2.31116 9.82204 10.7536
260 1 -1.1104 3.87962 5.68468 11.9548
261 1 -1.1104 3.65745 11.2649 12.0541
262 1 -1.1104 3.97431 5.70435 9.20521
263 1 -1.1104 3.72538 11.2659 9.27446
317 2 2.2208 7.92483 15.5259 10.849
243 1 -1.1104 6.44459 8.48661 11.9397
248 1 -1.1104 6.70825 5.64917 12.1452
254 1 -1.1104 6.53446 11.1418 9.35943
249 1 -1.1104 6.4826 11.1518 12.1031
319 1 -1.1104 9.43095 14.2274 9.37718
53 2 2.2208 13.5246 12.6859 7.79431
318 1 -1.1104 9.3561 19.6681 9.32293
338 2 2.2208 5.26949 -1.3533 13.5185
330 1 -1.1104 12.1406 14.1285 12.1504
253 1 -1.1104 6.68573 5.58924 9.25118
245 1 -1.1104 6.69068 8.31672 9.22139
267 1 -1.1104 9.32248 8.51436 6.71443
265 1 -1.1104 12.0152 8.47272 6.54376
264 1 -1.1104 9.3269 11.3745 9.23608
268 1 -1.1104 9.42293 5.72082 9.17809
270 1 -1.1104 9.45699 11.1302 12.198
271 1 -1.1104 9.52786 5.55799 12.0184
272 2 2.2208 7.97884 9.87197 10.664
273 1 -1.1104 9.64842 8.67289 9.61136
274 2 2.2208 7.97081 12.7401 8.00796
275 2 2.2208 8.00342 7.02714 7.84336
276 2 2.2208 10.8315 7.06026 10.8465
277 2 2.2208 10.9473 12.5251 10.8674
278 1 -1.1104 11.9833 8.5663 12.2417
279 1 -1.1104 12.2412 8.52617 9.27198
280 1 -1.1104 12.3828 5.67397 12.1979
281 1 -1.1104 12.4744 11.2762 12.0576
282 2 2.2208 10.816 9.87235 7.99691
283 1 -1.1104 12.2752 5.6915 9.27471
284 1 -1.1104 12.0711 11.3726 9.18893
285 1 -1.1104 9.15727 8.45137 12.25
339 2 2.2208 2.36333 1.38185 13.5341
324 2 2.2208 10.806 21.1583 8.04773
329 1 -1.1104 11.9988 19.6451 12.1534
297 1 -1.1104 6.56914 14.0868 12.0108
306 1 -1.1104 6.47465 16.9538 12.0563
289 1 -1.1104 6.54746 16.7291 9.47778
310 2 2.2208 2.33669 15.4491 10.6568
305 1 -1.1104 3.74079 14.0241 9.35493
309 2 2.2208 2.2937 21.0425 10.7493
301 1 -1.1104 3.6376 19.7014 9.31524
304 1 -1.1104 3.71791 16.873 9.32606
298 1 -1.1104 0.899214 19.6235 11.9904
295 2 2.2208 5.21773 15.4046 8.05159
300 2 2.2208 5.21772 18.4116 10.8114
308 1 -1.1104 3.66469 16.9533 12.0764
307 1 -1.1104 0.956693 16.9097 12.166
299 1 -1.1104 0.999203 14.0803 12.0164
303 2 2.2208 2.40455 18.2184 7.98594
286 1 -1.1104 3.65792 19.7582 12.2109
287 1 -1.1104 3.83291 14.1622 12.33
291 1 -1.1104 0.655226 19.6161 9.28283
292 1 -1.1104 0.921638 16.9037 9.43604
293 2 2.2208 5.06654 21.0339 7.80591
294 1 -1.1104 0.965345 14.0717 9.34718
290 1 -1.1104 6.64219 13.9524 9.3048
288 1 -1.1104 6.5525 19.6066 9.30218
332 2 2.2208 13.4713 18.2686 7.88951
230 2 2.2208 13.5956 -1.30059 10.6713
316 2 2.2208 7.96651 20.9389 10.7447
358 2 2.2208 5.09169 21.0661 13.52
331 2 2.2208 10.7377 18.1243 10.6926
361 2 2.2208 10.7705 15.4244 13.5966
314 1 -1.1104 9.44177 16.8387 9.23078
231 2 2.2208 13.3621 21.0327 5.09199
352 2 2.2208 5.14608 9.88366 13.5327
355 2 2.2208 10.7 9.84409 13.5718
356 2 2.2208 7.91669 12.6291 13.4276
336 2 2.2208 13.57 7.17483 13.6127
105 2 2.2208 13.6371 6.94739 2.29173
204 2 2.2208 13.5062 15.3323 5.10285
30 2 2.2208 -0.307531 9.83362 7.90023
25 2 2.2208 -0.407988 -1.42874 2.21169
202 2 2.2208 13.5606 7.20386 7.88669
199 2 2.2208 -0.422088 4.1691 7.84086
49 2 2.2208 13.5328 1.51684 2.40095
8999 2 2.2208 2.29092 -4.01763 7.98867
8997 2 2.2208 10.9178 -4.04239 5.19891
8996 2 2.2208 7.96443 -4.1424 2.37881
8995 2 2.2208 -0.222206 -4.09808 5.00526
349 2 2.2208 7.90373 21.0082 -0.354488
388 2 2.2208 5.17306 1.31175 16.3658
389 1 -1.1104 1.02618 -2.65061 17.7988
390 1 -1.1104 1.12877 2.83308 17.7882
393 1 -1.1104 1.03119 -2.81729 15.0259
395 1 -1.1104 1.07627 3.00017 14.9423
401 1 -1.1104 1.04454 0.193159 17.7033
403 2 2.2208 5.22113 -1.43702 19.157
404 2 2.2208 5.22607 4.26596 19.0492
405 1 -1.1104 1.09693 0.0467944 14.8473
409 1 -1.1104 3.86287 -2.91463 17.6411
410 1 -1.1104 3.90346 2.68844 17.685
411 2 2.2208 2.46563 1.44085 19.1208
412 1 -1.1104 3.75487 -2.75832 14.9052
414 1 -1.1104 3.75325 2.83564 14.9793
416 2 2.2208 2.38631 -1.38852 16.3049
417 2 2.2208 2.56272 4.1924 16.31
418 1 -1.1104 3.87486 -0.14383 17.7928
419 1 -1.1104 3.76171 -0.0303576 14.8232
402 1 -1.1104 6.59541 -0.0123318 17.6721
415 1 -1.1104 3.84657 2.85186 20.3895
344 2 2.2208 13.6212 15.3499 27.673
391 1 -1.1104 6.63091 -2.90987 17.6488
413 1 -1.1104 3.70211 -2.78715 20.3691
407 1 -1.1104 6.65326 -0.00974567 14.9021
406 1 -1.1104 0.955864 -0.0159854 20.5712
420 1 -1.1104 3.80434 0.0527476 20.5703
400 1 -1.1104 6.59754 3.06015 20.3648
397 1 -1.1104 6.47169 -2.74129 14.7627
392 1 -1.1104 6.62536 2.83892 17.6757
399 1 -1.1104 6.59601 2.67128 15.0817
394 1 -1.1104 1.00655 -2.77129 20.6916
398 1 -1.1104 6.61066 -2.65813 20.4823
408 1 -1.1104 6.57719 0.0711029 20.5276
373 2 2.2208 2.38549 15.3689 27.6309
431 2 2.2208 10.8873 1.4203 16.3093
432 1 -1.1104 12.0678 -2.87987 17.8978
433 1 -1.1104 12.1838 2.72785 17.7768
434 1 -1.1104 12.1036 -2.69186 15.0896
436 1 -1.1104 12.2238 2.82699 14.8956
438 1 -1.1104 12.2811 -0.193082 17.8321
439 2 2.2208 10.7426 -1.44763 19.191
440 2 2.2208 10.9288 4.23148 19.2348
441 1 -1.1104 12.1936 -0.11334 14.8288
443 1 -1.1104 9.36611 -2.75372 17.7735
444 1 -1.1104 9.4177 2.94277 17.7008
445 2 2.2208 7.97967 1.49616 19.1019
446 1 -1.1104 9.21254 -2.80851 14.8433
448 1 -1.1104 9.58208 2.83767 14.9248
450 2 2.2208 7.94825 -1.35593 16.3653
451 2 2.2208 8.04215 4.19878 16.3082
452 1 -1.1104 9.45272 0.0267309 17.9578
453 1 -1.1104 9.46437 0.0618691 15.1073
428 2 2.2208 13.5929 1.46557 19.0992
710 2 2.2208 13.441 6.99136 24.7933
654 2 2.2208 13.41 1.47585 24.8641
449 1 -1.1104 9.43089 2.78116 20.4469
437 1 -1.1104 12.3195 2.92543 20.4087
435 1 -1.1104 12.0735 -2.82249 20.638
454 1 -1.1104 9.44532 0.0148219 20.7289
429 2 2.2208 13.6095 4.2592 16.3874
461 2 2.2208 13.4743 20.9643 21.9724
424 2 2.2208 -0.337373 1.53586 16.408
345 2 2.2208 13.4701 20.9876 27.6823
464 2 2.2208 5.12585 7.0106 16.1859
465 2 2.2208 5.2283 12.5484 16.337
466 1 -1.1104 1.08529 8.34291 17.5093
468 1 -1.1104 0.938476 8.43264 14.8903
472 1 -1.1104 0.912835 5.44625 17.7943
473 1 -1.1104 0.918917 11.1932 17.7099
476 2 2.2208 5.08477 9.83205 19.0132
477 1 -1.1104 0.946067 5.80988 15.0094
479 1 -1.1104 1.05018 11.2853 14.9493
485 1 -1.1104 3.75619 8.50009 17.5483
486 2 2.2208 2.30296 6.96918 19.1045
487 2 2.2208 2.40315 12.7822 19.1264
488 1 -1.1104 3.68866 8.56367 14.7881
490 2 2.2208 2.31239 9.80909 16.1975
491 1 -1.1104 3.82856 5.62531 17.633
492 1 -1.1104 3.81302 11.3029 17.6697
493 1 -1.1104 3.71685 5.74209 14.7952
495 1 -1.1104 3.72268 11.3238 14.8962
474 1 -1.1104 6.57202 5.61974 17.7537
478 1 -1.1104 0.96694 5.65241 20.5901
496 1 -1.1104 3.72962 11.2171 20.6226
494 1 -1.1104 3.91987 5.71916 20.4948
471 1 -1.1104 6.44946 8.62901 20.3977
481 1 -1.1104 6.59887 5.48324 14.8733
470 1 -1.1104 6.54558 8.33567 14.7678
483 1 -1.1104 6.57968 11.3073 14.8707
467 1 -1.1104 6.56389 8.40419 17.4584
482 1 -1.1104 6.81962 5.78364 20.4599
469 1 -1.1104 0.836902 8.3592 20.4344
347 2 2.2208 7.90682 15.4869 27.5718
475 1 -1.1104 6.49238 11.2115 17.697
500 2 2.2208 10.6548 7.1327 16.3314
501 2 2.2208 10.7316 12.719 16.377
502 1 -1.1104 12.2277 8.59399 17.7339
503 1 -1.1104 12.1608 8.60632 14.9734
505 1 -1.1104 12.0888 5.66763 17.8555
506 1 -1.1104 12.1047 11.2705 17.6589
507 2 2.2208 10.7565 9.93041 19.0636
508 1 -1.1104 12.1196 5.71637 15.0245
510 1 -1.1104 12.1715 11.2846 14.858
512 1 -1.1104 9.35703 8.44893 17.7317
513 2 2.2208 8.00794 7.08042 19.2001
514 2 2.2208 7.93918 12.7094 19.1106
515 1 -1.1104 9.26296 8.40123 14.9573
517 2 2.2208 7.96022 9.83534 16.2106
518 1 -1.1104 9.3445 5.69103 17.5421
519 1 -1.1104 9.2824 11.2739 17.649
520 1 -1.1104 9.40361 5.62221 14.7281
522 1 -1.1104 9.39969 11.2542 15.0391
651 2 2.2208 13.5016 7.24147 19.0478
504 1 -1.1104 12.0958 8.56371 20.4997
516 1 -1.1104 9.24699 8.5221 20.6849
509 1 -1.1104 12.2887 5.78774 20.5645
364 2 2.2208 5.12946 1.50903 27.4439
385 2 2.2208 7.98587 9.88937 27.447
618 2 2.2208 13.5005 18.3383 19.19
430 2 2.2208 13.5583 15.4977 21.8826
527 2 2.2208 4.95886 18.4054 16.3696
528 1 -1.1104 1.04633 14.1423 17.7653
529 1 -1.1104 0.932466 19.656 17.7107
532 1 -1.1104 0.845372 14.0643 14.8302
534 1 -1.1104 0.869303 19.6154 14.8101
540 1 -1.1104 0.810257 16.8701 17.6607
542 2 2.2208 5.0968 15.3665 19.173
543 2 2.2208 5.09613 21.1043 19.186
544 1 -1.1104 0.805562 16.8518 14.9236
548 1 -1.1104 3.86732 13.9846 17.8405
549 1 -1.1104 3.65829 19.7277 17.8341
550 2 2.2208 2.31483 18.3092 19.0926
551 1 -1.1104 3.82811 14.0294 15.1187
553 1 -1.1104 3.66253 19.7969 15.0061
555 2 2.2208 2.30398 15.5187 16.2038
556 2 2.2208 2.34654 21.1976 16.4309
557 1 -1.1104 3.5588 16.9943 17.6243
558 1 -1.1104 3.63674 17.0274 14.8519
554 1 -1.1104 3.65182 19.6172 20.5489
545 1 -1.1104 0.827294 16.8501 20.5668
535 1 -1.1104 0.870992 19.6333 20.5123
559 1 -1.1104 3.83992 16.7949 20.4885
536 1 -1.1104 6.56309 14.1198 14.9665
538 1 -1.1104 6.48852 19.7522 14.8642
531 1 -1.1104 6.51 19.7292 17.7414
530 1 -1.1104 6.64172 14.0433 17.7942
537 1 -1.1104 6.44835 14.1981 20.6505
377 2 2.2208 13.4285 -1.34187 27.6578
463 1 -1.1104 12.0044 14.0143 23.407
526 2 2.2208 10.6073 21.1323 24.7544
620 1 -1.1104 9.45733 16.935 26.3263
370 2 2.2208 7.97819 -1.42058 27.4493
541 1 -1.1104 6.33457 16.8225 17.6987
574 1 -1.1104 12.0984 16.9848 20.4224
581 1 -1.1104 9.18885 19.5611 20.4522
546 1 -1.1104 6.33447 17.0723 14.8474
539 1 -1.1104 6.43643 19.8217 20.5394
563 2 2.2208 10.7942 18.2543 16.3264
564 1 -1.1104 12.1505 14.1422 17.6245
565 1 -1.1104 12.1368 19.7157 17.7932
566 1 -1.1104 12.3156 14.1634 14.889
568 1 -1.1104 12.1153 19.6396 15.0618
570 1 -1.1104 12.1721 16.8029 17.7717
571 2 2.2208 10.7262 15.5064 19.1097
572 2 2.2208 10.6782 20.9186 19.32
573 1 -1.1104 12.2073 16.8728 15.0654
575 1 -1.1104 9.2806 14.1538 17.7921
576 1 -1.1104 9.36007 19.5361 17.7972
577 2 2.2208 7.85801 18.2367 19.2223
578 1 -1.1104 9.30784 13.8813 15.0226
580 1 -1.1104 9.21332 19.4643 14.9222
582 2 2.2208 7.79637 15.5539 16.379
583 2 2.2208 8.04267 20.9518 16.3261
584 1 -1.1104 9.33667 16.8672 17.7247
585 1 -1.1104 9.23075 16.7233 14.9868
569 1 -1.1104 12.0975 19.6035 20.7005
579 1 -1.1104 9.29464 13.9446 20.5411
586 1 -1.1104 9.28661 16.7917 20.4975
460 2 2.2208 13.538 21.062 16.39
396 1 -1.1104 0.897358 2.84582 20.4896
9092 2 2.2208 2.32748 -4.12904 24.7629
591 2 2.2208 5.25573 1.49829 21.8273
592 1 -1.1104 0.913064 -2.76046 23.3541
593 1 -1.1104 1.01057 2.86091 23.1832
596 1 -1.1104 0.90745 -2.80437 26.2529
597 1 -1.1104 0.786894 2.78701 25.9986
600 1 -1.1104 0.932975 -0.0152835 23.2623
602 2 2.2208 5.12221 -1.29676 24.8382
603 2 2.2208 5.19088 4.38977 24.6355
604 1 -1.1104 0.914224 0.05961 26.016
606 1 -1.1104 3.71457 -2.71902 23.3868
607 1 -1.1104 3.83459 3.05431 23.2747
608 2 2.2208 2.3788 1.46042 24.6593
609 1 -1.1104 3.62083 -2.739 26.0728
610 1 -1.1104 3.67287 2.96937 26.1493
611 2 2.2208 2.45239 -1.38542 21.9007
612 2 2.2208 2.38173 4.36733 21.8775
613 1 -1.1104 3.74536 0.116225 23.3467
614 1 -1.1104 3.83865 0.111428 26.1437
601 1 -1.1104 6.56636 0.14727 23.4853
605 1 -1.1104 6.71758 0.101345 26.2006
365 2 2.2208 2.26379 -1.41439 27.4073
366 2 2.2208 2.25291 4.18386 27.4976
598 1 -1.1104 6.57955 -2.75654 26.1221
595 1 -1.1104 6.53638 3.03819 23.0704
599 1 -1.1104 6.44221 2.86516 26.0226
594 1 -1.1104 6.46256 -2.87715 23.2949
384 2 2.2208 10.7111 7.05445 27.5796
708 2 2.2208 13.5574 12.5586 24.7916
447 1 -1.1104 9.43013 -2.79465 20.5942
369 2 2.2208 10.7899 1.5505 27.5373
442 1 -1.1104 12.2685 0.0630622 20.6662
627 2 2.2208 10.7777 1.43326 21.9868
628 1 -1.1104 12.1941 -2.72779 23.3516
629 1 -1.1104 12.1151 2.86269 23.2398
630 1 -1.1104 12.181 -2.71286 26.1408
631 1 -1.1104 12.0405 2.91468 26.0423
632 1 -1.1104 12.1244 -0.029188 23.4968
633 2 2.2208 10.8364 -1.31273 24.796
635 1 -1.1104 12.0834 0.0515776 26.2503
636 1 -1.1104 9.25745 -2.81113 23.4019
637 1 -1.1104 9.44825 2.83423 23.2387
638 2 2.2208 8.08101 1.48874 24.7243
639 1 -1.1104 9.36464 -2.81919 26.2323
640 1 -1.1104 9.27295 2.8092 26.1316
641 2 2.2208 8.02645 -1.48638 21.9702
642 2 2.2208 8.09066 4.32114 21.7693
643 1 -1.1104 9.47296 -0.083438 23.357
644 1 -1.1104 9.39283 0.0226067 26.1612
634 2 2.2208 10.8642 4.2993 24.7315
653 2 2.2208 13.516 -1.47759 21.9582
590 1 -1.1104 9.55766 19.6439 26.2243
372 2 2.2208 7.82733 4.20559 27.4895
387 2 2.2208 13.6582 9.78506 27.518
423 2 2.2208 13.692 4.33402 21.9656
619 2 2.2208 13.6207 15.5416 16.3798
480 1 -1.1104 0.866082 11.1869 20.6166
489 1 -1.1104 3.71986 8.45514 20.5939
656 2 2.2208 5.16508 7.18783 21.8482
657 2 2.2208 5.10544 12.5134 21.9759
658 1 -1.1104 0.949758 8.35488 23.3885
660 1 -1.1104 0.970757 8.47846 26.0125
662 1 -1.1104 1.05973 5.57578 23.3123
663 1 -1.1104 0.910307 11.3426 23.3515
666 2 2.2208 5.26959 9.83459 24.7951
667 1 -1.1104 0.858573 5.63111 26.1684
668 1 -1.1104 0.866439 11.1813 26.2521
671 1 -1.1104 3.77738 8.44481 23.3727
672 2 2.2208 2.44503 7.02957 24.8156
673 2 2.2208 2.25295 12.598 24.7085
674 1 -1.1104 3.7697 8.25444 26.1919
675 2 2.2208 2.27498 9.82106 21.94
676 1 -1.1104 3.86847 5.84954 23.2385
677 1 -1.1104 3.59247 11.2894 23.4931
678 1 -1.1104 3.84081 5.53299 26.1868
679 1 -1.1104 3.75078 11.1248 26.1349
669 1 -1.1104 6.72654 5.79065 26.1083
484 1 -1.1104 6.6917 11.4728 20.5062
665 1 -1.1104 6.49109 11.1004 23.4125
661 1 -1.1104 6.59676 8.55904 26.22
659 1 -1.1104 6.57476 8.51788 23.3578
664 1 -1.1104 6.68862 5.85395 23.4281
670 1 -1.1104 6.62827 11.2995 26.0798
379 2 2.2208 5.12548 6.95263 27.6146
381 2 2.2208 5.13157 12.6329 27.4463
523 1 -1.1104 9.37803 11.2821 20.5481
511 1 -1.1104 12.0831 11.3801 20.3464
521 1 -1.1104 9.5683 5.65236 20.3672
687 1 -1.1104 9.51411 11.1409 26.2461
688 1 -1.1104 9.43155 5.65808 25.9969
689 1 -1.1104 9.36524 11.3547 23.5112
690 1 -1.1104 9.58013 5.47015 23.1576
691 2 2.2208 7.95298 9.98815 21.9481
692 1 -1.1104 9.49047 8.50585 26.1959
693 2 2.2208 7.92117 12.6911 24.7758
694 2 2.2208 8.08073 7.07058 24.7172
695 2 2.2208 10.8901 7.01747 21.9072
696 2 2.2208 10.8327 12.7076 21.927
697 1 -1.1104 12.1634 8.37716 23.2521
698 1 -1.1104 12.2814 8.38892 26.2149
699 1 -1.1104 12.2214 5.64776 23.456
700 1 -1.1104 12.2757 11.3018 23.2194
701 2 2.2208 10.8207 9.83557 24.7303
702 1 -1.1104 12.1663 5.67726 26.2689
703 1 -1.1104 12.1725 11.0976 25.9793
704 1 -1.1104 9.35629 8.47583 23.2898
617 1 -1.1104 9.33514 16.9713 23.3104
714 1 -1.1104 6.64157 16.9388 26.1262
386 2 2.2208 10.6965 12.5152 27.4454
561 1 -1.1104 9.21072 14.1779 23.3941
616 2 2.2208 7.8039 21.0485 21.9538
533 1 -1.1104 0.862849 13.9051 20.4679
547 1 -1.1104 6.57524 16.8756 20.5523
680 1 -1.1104 6.50334 16.7235 23.3518
709 1 -1.1104 6.47366 13.9453 23.329
552 1 -1.1104 3.57052 14.1179 20.6004
718 1 -1.1104 6.5819 19.5823 23.4424
712 1 -1.1104 6.47959 13.9925 26.1289
588 1 -1.1104 6.4913 19.9042 26.2541
719 2 2.2208 5.14827 21.1349 24.8745
717 1 -1.1104 0.986991 14.0633 26.0271
720 2 2.2208 4.98303 15.5292 24.6637
647 2 2.2208 2.30012 15.5634 21.9824
649 2 2.2208 2.24742 21.1878 21.9571
652 1 -1.1104 3.7744 17.023 23.2577
655 1 -1.1104 0.823878 16.9183 23.2341
681 1 -1.1104 3.75582 13.8646 26.0583
682 1 -1.1104 3.71924 16.86 26.2249
683 2 2.2208 2.51435 18.2776 24.8793
686 1 -1.1104 3.83616 19.6453 26.1825
705 2 2.2208 5.07763 18.2853 21.978
706 1 -1.1104 0.846379 14.1757 23.3267
707 1 -1.1104 1.10203 19.7462 23.3389
711 1 -1.1104 3.90646 19.6198 23.4184
713 1 -1.1104 3.61997 14.0517 23.3366
715 1 -1.1104 0.942131 19.7516 26.2006
716 1 -1.1104 1.08761 16.8049 26.1694
499 1 -1.1104 12.2813 19.6432 26.3297
375 2 2.2208 2.3989 21.0799 27.6876
374 2 2.2208 5.18093 18.2443 27.6087
462 2 2.2208 10.6864 18.2394 21.9302
615 2 2.2208 7.91728 15.3878 21.9397
524 1 -1.1104 12.0923 16.7167 23.1915
587 2 2.2208 8.06208 18.2088 24.6849
525 2 2.2208 10.7395 15.424 24.652
560 1 -1.1104 12.1816 16.7666 26.1237
497 1 -1.1104 12.032 19.6031 23.5043
567 1 -1.1104 12.1874 14.0466 20.4662
498 1 -1.1104 12.0305 13.8963 26.2032
589 1 -1.1104 9.17789 14.0642 26.0933
562 1 -1.1104 9.35279 19.8377 23.2659
378 2 2.2208 13.5223 4.25897 27.5534
426 2 2.2208 13.679 9.87874 16.4333
650 2 2.2208 13.6559 12.6775 18.962
455 2 2.2208 13.5421 18.2667 24.8193
380 2 2.2208 2.34451 9.68665 27.5598
9158 2 2.2208 2.30301 -4.10324 19.0467
422 2 2.2208 13.5312 9.88078 21.8556
9091 2 2.2208 13.5918 -4.1599 24.8467
348 2 2.2208 10.827 18.2482 27.5629
721 2 2.2208 5.02916 23.8567 5.06914
722 2 2.2208 5.13692 29.4056 5.14318
723 1 -1.1104 0.982768 25.257 0.94032
724 1 -1.1104 0.914885 25.0862 3.83904
725 1 -1.1104 1.0263 22.5208 0.907251
726 1 -1.1104 0.987552 27.9752 1.13369
727 2 2.2208 5.03622 26.6915 2.39022
728 1 -1.1104 0.809251 22.3183 3.76906
729 1 -1.1104 0.824696 27.9681 3.93771
730 1 -1.1104 3.66609 25.2394 0.919649
731 2 2.2208 2.35764 23.8157 2.33694
732 2 2.2208 2.26199 29.4924 2.46057
733 1 -1.1104 3.63319 25.2027 3.70125
734 2 2.2208 2.23892 26.6437 5.2608
735 1 -1.1104 3.69974 22.3452 1.14969
736 1 -1.1104 3.75571 28.1341 0.942266
737 1 -1.1104 3.703 22.3847 3.75245
738 1 -1.1104 3.57936 28.0005 3.6513
862 1 -1.1104 0.840043 25.3729 6.52195
870 1 -1.1104 3.57681 28.0814 6.54237
745 1 -1.1104 6.55902 27.9967 0.867886
746 1 -1.1104 6.62636 22.5564 3.83635
865 1 -1.1104 0.871461 28.1319 6.64028
742 1 -1.1104 6.42449 25.1704 0.913741
1640 1 -1.1104 9.37877 47.6051 6.40167
868 1 -1.1104 3.7185 25.3927 6.56082
1015 1 -1.1104 9.3314 42.0107 12.3693
1045 2 2.2208 2.38919 23.8854 13.6413
743 1 -1.1104 6.33567 25.2119 3.63156
747 1 -1.1104 6.64532 28.0995 3.68174
744 1 -1.1104 6.52586 22.4242 1.09483
748 2 2.2208 10.7861 23.7729 5.2331
749 2 2.2208 10.7539 29.5113 5.11745
750 1 -1.1104 12.1577 25.4225 0.983887
751 1 -1.1104 11.9435 25.2226 3.81359
752 1 -1.1104 12.0268 22.5631 1.06222
753 1 -1.1104 12.1944 28.1548 0.749946
754 2 2.2208 10.7059 26.7056 2.32824
755 1 -1.1104 12.0426 22.6255 3.66957
756 1 -1.1104 12.2641 28.0815 3.68034
757 1 -1.1104 9.27258 25.3879 0.858351
758 2 2.2208 7.83687 23.9561 2.36517
759 2 2.2208 7.99432 29.454 2.2368
760 1 -1.1104 9.1962 25.2252 3.58122
761 2 2.2208 8.01483 26.7093 5.03496
762 1 -1.1104 9.16846 22.5103 0.937422
763 1 -1.1104 9.37941 28.1484 0.772078
764 1 -1.1104 9.39291 22.4145 3.96107
765 1 -1.1104 9.47568 28.1513 3.70334
899 1 -1.1104 9.2889 22.4665 6.54104
898 1 -1.1104 9.26453 25.2781 6.46903
895 1 -1.1104 12.1958 25.3139 6.52783
866 1 -1.1104 6.47956 22.4804 6.56605
896 1 -1.1104 12.2606 22.5314 6.59476
867 1 -1.1104 6.50466 28.013 6.5239
897 1 -1.1104 12.0588 28.1734 6.50941
900 1 -1.1104 9.27619 28.048 6.49694
863 1 -1.1104 6.44178 25.2866 6.38515
1035 2 2.2208 13.5243 29.5148 8.08411
1056 2 2.2208 2.58008 46.2512 13.7242
1007 1 -1.1104 9.50101 44.9334 9.2998
769 2 2.2208 5.17029 35.1641 5.25918
770 1 -1.1104 1.07496 30.9088 0.924021
771 1 -1.1104 0.985241 36.3983 1.00774
773 1 -1.1104 0.999537 30.8713 3.70622
774 1 -1.1104 0.958046 36.4892 3.75708
776 1 -1.1104 0.996402 33.6339 1.07225
777 2 2.2208 5.15163 32.3272 2.37251
778 2 2.2208 5.14134 37.945 2.4057
779 1 -1.1104 0.887335 33.5416 3.96374
781 1 -1.1104 3.6652 30.8366 0.998178
782 1 -1.1104 3.80976 36.5037 0.994199
783 2 2.2208 2.32418 35.0203 2.36858
784 1 -1.1104 3.81036 30.7158 3.69916
785 1 -1.1104 3.74202 36.4439 3.80472
786 2 2.2208 2.46919 32.1993 5.14558
787 2 2.2208 2.28821 37.7699 5.18939
788 1 -1.1104 3.75008 33.6587 0.93689
789 1 -1.1104 3.63842 33.6076 3.78232
922 1 -1.1104 6.52686 36.5232 6.54922
925 1 -1.1104 3.73916 30.8873 6.5595
775 1 -1.1104 6.53962 36.6031 3.79634
924 1 -1.1104 6.51911 33.7181 6.62025
920 1 -1.1104 0.835344 36.3466 6.51039
795 1 -1.1104 6.61613 33.6426 1.01904
780 1 -1.1104 6.2816 33.6967 3.76553
927 1 -1.1104 3.66259 33.688 6.50558
923 1 -1.1104 0.924097 33.7413 6.74965
919 1 -1.1104 0.891943 30.953 6.36942
794 1 -1.1104 6.50461 30.9017 3.75961
772 1 -1.1104 6.41592 36.3556 0.95892
921 1 -1.1104 6.54287 30.9372 6.69299
793 1 -1.1104 6.55339 30.8905 1.01094
796 2 2.2208 10.8214 35.1209 5.31256
797 1 -1.1104 12.1243 30.8376 0.905512
798 1 -1.1104 12.095 36.4897 0.951407
799 1 -1.1104 11.9859 30.9373 3.8541
800 1 -1.1104 12.1553 36.3798 3.81144
801 1 -1.1104 12.138 33.6566 0.998961
802 2 2.2208 10.8121 32.4258 2.40225
803 2 2.2208 10.792 37.8448 2.3582
804 1 -1.1104 12.086 33.6278 3.94617
805 1 -1.1104 9.42646 30.9405 0.942105
806 1 -1.1104 9.29356 36.5011 1.01849
807 2 2.2208 8.01195 35.1488 2.4058