ITEM: TIMESTEP
80000
ITEM: NUMBER OF ATOMS
17670
ITEM: BOX BOUNDS pp pp pp
-3.6028195346052039e-01 2.7700281953460870e+01
-4.3053458702935981e+00 3.3238534587029284e+02
-3.5624730723710457e-01 2.7696247307236501e+01
ITEM: ATOMS id type q x y z
1 2 2.2208 5.13047 1.29251 5.29344
2 1 -1.1104 1.0053 -2.72796 1.07622
3 1 -1.1104 0.894893 2.70384 0.954145
6 1 -1.1104 0.8833 -2.99394 3.75985
7 1 -1.1104 0.900111 2.85731 3.95428
10 1 -1.1104 1.07807 0.0687433 0.852823
12 2 2.2208 5.13719 -1.58885 2.3772
13 2 2.2208 5.23754 4.15417 2.32549
14 1 -1.1104 0.893446 -0.00717363 3.71889
16 1 -1.1104 3.71414 -2.94493 1.15493
17 1 -1.1104 3.75852 2.80691 0.948463
18 2 2.2208 2.3296 1.42244 2.47567
19 1 -1.1104 3.73667 -2.68976 3.91222
20 1 -1.1104 3.80019 2.64188 3.81272
21 2 2.2208 2.26719 -1.44428 5.17448
22 2 2.2208 2.35946 4.09821 5.1332
23 1 -1.1104 3.69342 -0.125006 0.968419
24 1 -1.1104 3.7225 -0.0395695 3.75986
166 1 -1.1104 1.03344 -2.89717 6.63202
172 1 -1.1104 3.77426 -2.7937 6.74994
5 1 -1.1104 6.54517 2.71104 1.02424
170 1 -1.1104 0.871442 -0.00349647 6.6156
174 1 -1.1104 3.76623 -0.0641185 6.55988
173 1 -1.1104 3.57695 2.77221 6.71312
167 1 -1.1104 0.95613 2.70393 6.73927
15 1 -1.1104 6.51621 -0.21692 3.83791
171 1 -1.1104 6.51899 -0.0263309 6.72644
8 1 -1.1104 6.51596 -2.86252 3.94088
329 1 -1.1104 12.2825 19.5254 12.1977
314 1 -1.1104 9.31733 16.6194 9.47198
4 1 -1.1104 6.55429 -2.94932 1.13171
9 1 -1.1104 6.62671 2.72205 3.76879
11 1 -1.1104 6.58304 -0.0947096 0.952958
169 1 -1.1104 6.58397 2.81059 6.62045
31 2 2.2208 10.786 1.29768 5.29699
32 1 -1.1104 12.262 -3.00135 1.08665
33 1 -1.1104 12.1515 2.77652 0.963398
34 1 -1.1104 12.1297 -3.02974 3.85543
35 1 -1.1104 12.2662 2.7239 3.80963
36 1 -1.1104 12.2254 -0.183381 1.07593
37 2 2.2208 10.7747 -1.60653 2.39886
39 1 -1.1104 12.1434 -0.0994557 3.90398
40 1 -1.1104 9.39647 -3.01305 1.12247
41 1 -1.1104 9.27598 2.65285 1.20136
42 2 2.2208 7.83874 1.29679 2.49079
43 1 -1.1104 9.37475 -2.77238 3.77287
44 1 -1.1104 9.50264 2.77743 4.02531
45 2 2.2208 8.05898 -1.5263 5.28278
46 2 2.2208 8.04266 4.15488 5.24755
47 1 -1.1104 9.39128 -0.210379 1.00723
48 1 -1.1104 9.30349 0.0424271 3.82949
38 2 2.2208 10.7694 4.167 2.49025
210 1 -1.1104 9.37207 -0.187837 6.62064
209 1 -1.1104 9.36852 2.5933 6.78134
206 1 -1.1104 12.2511 2.75537 6.61643
207 1 -1.1104 12.2385 0.01573 6.80048
205 1 -1.1104 12.1161 -2.73857 6.76267
208 1 -1.1104 9.41232 -2.92262 6.55454
9000 2 2.2208 5.14747 -4.28557 10.9682
335 2 2.2208 -0.265629 21.1308 13.5857
373 2 2.2208 2.47815 15.2785 -0.278538
377 2 2.2208 13.5927 -1.53254 -0.335099
50 2 2.2208 13.5534 -1.45396 5.26534
54 2 2.2208 5.11203 6.8919 5.1892
55 2 2.2208 5.27327 12.4664 5.25172
56 1 -1.1104 1.03551 8.23385 1.00152
58 1 -1.1104 1.02095 8.27322 3.90301
60 1 -1.1104 1.14693 5.41585 1.09058
61 1 -1.1104 1.04654 11.0461 1.01759
66 2 2.2208 5.2233 9.5449 2.40462
67 1 -1.1104 0.996226 5.44413 3.79084
68 1 -1.1104 1.06368 11.1405 3.88116
71 1 -1.1104 3.8166 8.23592 0.905748
72 2 2.2208 2.43365 6.81552 2.40736
73 2 2.2208 2.45032 12.3932 2.40418
74 1 -1.1104 3.69958 8.1081 3.86292
75 2 2.2208 2.47219 9.64295 5.32631
76 1 -1.1104 3.80217 5.53816 0.891976
77 1 -1.1104 3.89007 10.8958 1.0532
79 1 -1.1104 3.79561 5.33487 3.78802
80 1 -1.1104 3.85406 10.8094 3.93382
236 1 -1.1104 1.00237 5.61719 6.45945
78 1 -1.1104 3.99596 11.1214 6.74613
238 1 -1.1104 3.79881 8.40551 6.69401
239 1 -1.1104 3.80633 5.55086 6.64601
69 1 -1.1104 6.52157 5.63808 3.78348
63 1 -1.1104 6.56097 5.47596 0.968309
62 1 -1.1104 1.14984 11.1202 6.74644
64 1 -1.1104 6.75156 10.9961 1.09655
57 1 -1.1104 6.63236 8.25744 0.920185
235 1 -1.1104 6.7491 8.33225 6.54302
237 1 -1.1104 6.59911 5.7379 6.64738
70 1 -1.1104 6.64716 11.0402 3.93608
331 2 2.2208 10.736 18.1538 10.9363
52 2 2.2208 13.6506 9.83533 10.8726
59 1 -1.1104 6.51769 8.23221 3.8271
84 2 2.2208 10.8175 6.88676 5.20127
85 2 2.2208 10.8215 12.5461 5.29376
86 1 -1.1104 12.155 8.35449 0.946894
87 1 -1.1104 12.2415 8.40946 3.99834
88 1 -1.1104 12.2022 5.68838 1.01142
89 1 -1.1104 12.2812 11.0547 1.04561
91 2 2.2208 10.9542 9.71852 2.43615
92 1 -1.1104 12.1694 5.50292 3.82106
93 1 -1.1104 12.3781 11.2748 3.78666
94 1 -1.1104 9.36823 8.28387 1.03826
95 2 2.2208 7.95273 6.79231 2.36828
96 2 2.2208 8.1915 12.4661 2.50454
97 1 -1.1104 9.43922 8.28955 3.93988
98 2 2.2208 8.0962 9.66949 5.28722
99 1 -1.1104 9.36327 5.48075 1.01608
100 1 -1.1104 9.46063 11.1611 1.02884
102 1 -1.1104 9.23717 5.49172 3.72797
103 1 -1.1104 9.46114 11.0178 3.78945
269 1 -1.1104 9.45972 5.37728 6.54761
311 2 2.2208 -0.276609 20.9287 8.11413
266 1 -1.1104 12.0498 5.57994 6.71689
265 1 -1.1104 12.3298 8.3305 6.75357
327 1 -1.1104 12.1554 19.5862 9.56645
105 2 2.2208 13.5957 6.93662 2.43621
9003 2 2.2208 10.8286 -4.25555 10.8533
318 1 -1.1104 9.44368 19.4669 9.48923
106 2 2.2208 5.29238 18.106 5.25284
107 1 -1.1104 1.1193 13.8589 0.94917
109 1 -1.1104 1.0023 19.4972 1.20107
113 1 -1.1104 1.01794 13.8834 3.8295
114 1 -1.1104 1.03534 19.4842 3.80579
116 1 -1.1104 1.08154 16.7642 1.08426
119 2 2.2208 5.17931 15.1606 2.49885
120 2 2.2208 5.27483 20.9275 2.38612
121 1 -1.1104 1.08239 16.7111 3.79226
123 1 -1.1104 3.81981 13.8828 1.26199
125 1 -1.1104 3.81394 19.4993 1.01467
127 2 2.2208 2.35271 18.116 2.45636
128 1 -1.1104 3.77339 13.6988 3.85029
129 1 -1.1104 3.89098 19.5607 3.81863
130 2 2.2208 2.43372 15.3351 5.26872
131 2 2.2208 2.35959 20.8534 5.23699
132 1 -1.1104 3.77938 16.6754 1.04124
134 1 -1.1104 3.86109 16.733 3.80751
140 1 -1.1104 6.63684 16.5546 1.03188
138 1 -1.1104 6.72908 19.5199 1.02521
115 1 -1.1104 6.65173 13.9602 3.91997
122 1 -1.1104 6.6095 16.7471 3.85998
112 1 -1.1104 6.52764 19.4703 6.7218
124 1 -1.1104 3.70267 13.8615 6.71983
302 1 -1.1104 1.08286 19.5086 6.7414
108 1 -1.1104 0.977191 13.9267 6.53238
126 1 -1.1104 3.78759 19.477 6.59454
117 1 -1.1104 1.05764 16.7286 6.69419
133 1 -1.1104 3.94835 16.6589 6.62646
111 1 -1.1104 6.67534 13.7815 6.71587
139 1 -1.1104 6.76613 19.5404 3.8882
110 1 -1.1104 6.61604 13.6751 1.14606
204 2 2.2208 13.5732 15.3317 5.21505
149 1 -1.1104 12.3351 16.697 6.68087
141 2 2.2208 10.8628 18.1474 5.30422
142 1 -1.1104 12.39 13.7552 1.17621
144 1 -1.1104 12.3389 19.6568 1.08834
146 1 -1.1104 12.2434 13.9786 3.94806
147 1 -1.1104 12.3791 19.5344 3.97406
148 1 -1.1104 12.1997 16.8493 1.19214
150 2 2.2208 10.919 15.2161 2.46648
151 2 2.2208 10.9216 20.9134 2.61648
152 1 -1.1104 12.186 16.7444 3.90119
153 1 -1.1104 9.53856 13.9457 1.10381
155 1 -1.1104 9.66944 19.4527 1.20058
157 2 2.2208 8.07376 18.1213 2.52901
158 1 -1.1104 9.47561 13.8054 3.9894
159 1 -1.1104 9.47372 19.5579 3.82848
160 2 2.2208 7.9614 15.3775 5.29828
161 2 2.2208 8.04391 20.9613 5.288
162 1 -1.1104 9.52563 16.6534 1.10129
164 1 -1.1104 9.35543 16.5373 3.93746
143 1 -1.1104 12.1696 13.845 6.72387
156 1 -1.1104 9.22992 19.6032 6.87735
163 1 -1.1104 9.52678 16.9201 6.7649
145 1 -1.1104 12.2857 19.6264 6.70817
165 2 2.2208 13.6705 18.1874 2.5279
9004 2 2.2208 13.6582 -4.15995 8.10285
154 1 -1.1104 9.40388 14.0102 6.74363
312 2 2.2208 -0.309703 18.1254 10.8546
175 2 2.2208 5.34264 1.19313 10.9466
176 1 -1.1104 0.848192 -2.86622 12.2193
177 1 -1.1104 0.837929 2.6784 12.4021
180 1 -1.1104 0.901908 -2.94976 9.39218
181 1 -1.1104 1.0514 2.75698 9.54492
184 1 -1.1104 0.886405 -0.0465391 12.3246
186 2 2.2208 5.18198 -1.42171 8.0811
187 2 2.2208 5.17114 4.25001 8.12174
188 1 -1.1104 0.973073 -0.134568 9.53058
190 1 -1.1104 3.84018 -2.88753 12.254
191 1 -1.1104 3.84875 2.67467 12.3423
192 2 2.2208 2.41382 1.32224 8.12848
193 1 -1.1104 3.80216 -3.0601 9.43113
194 1 -1.1104 3.69866 2.62203 9.58933
195 2 2.2208 2.23996 -1.46111 10.9221
196 2 2.2208 2.44279 4.11641 10.913
197 1 -1.1104 3.6906 -0.154246 12.3937
198 1 -1.1104 3.81181 -0.0453209 9.35481
179 1 -1.1104 6.59589 2.58725 12.324
182 1 -1.1104 6.63177 -2.91476 9.42967
185 1 -1.1104 6.59699 -0.140217 12.3801
8996 2 2.2208 7.95528 -4.29145 2.47391
316 2 2.2208 7.89516 20.9554 10.7939
178 1 -1.1104 6.66811 -2.98633 12.2607
8994 2 2.2208 5.07524 -4.22379 5.2764
325 2 2.2208 10.8665 15.2932 8.1137
136 2 2.2208 -0.326906 21.0539 2.36838
168 1 -1.1104 6.64652 -2.80299 6.7398
333 2 2.2208 13.6163 15.4075 10.9628
137 2 2.2208 -0.336499 18.1583 5.12471
330 1 -1.1104 12.0647 14.0531 12.2734
183 1 -1.1104 6.41944 2.71563 9.53074
189 1 -1.1104 6.64701 -0.12728 9.49032
82 2 2.2208 -0.331784 9.83499 2.38425
202 2 2.2208 13.5357 6.9954 8.0821
211 2 2.2208 10.8043 1.48139 10.9647
212 1 -1.1104 12.2277 -2.83171 12.3636
213 1 -1.1104 12.0971 2.8862 12.2968
214 1 -1.1104 12.1212 -2.86291 9.56902
215 1 -1.1104 12.1717 2.75613 9.40735
216 1 -1.1104 12.0681 -0.0639098 12.3064
217 2 2.2208 10.8165 -1.4536 8.08309
219 1 -1.1104 12.2258 -0.019359 9.59889
220 1 -1.1104 9.52855 -2.84602 12.2721
221 1 -1.1104 9.34579 2.74173 12.3837
222 2 2.2208 7.9726 1.264 8.05092
223 1 -1.1104 9.42316 -2.86167 9.41353
224 1 -1.1104 9.31206 2.75368 9.49719
225 2 2.2208 8.16661 -1.50424 10.8108
226 2 2.2208 7.91877 4.06561 10.8093
227 1 -1.1104 9.28273 -0.00735883 12.2391
228 1 -1.1104 9.48094 0.080912 9.46496
218 2 2.2208 10.6867 4.12376 8.12124
229 2 2.2208 13.5263 1.3317 8.14023
230 2 2.2208 13.6044 -1.47827 10.8872
203 2 2.2208 13.6135 4.10782 10.7252
351 2 2.2208 2.43875 6.92916 13.6645
323 1 -1.1104 12.2032 16.8154 9.42486
65 1 -1.1104 6.76974 11.0622 6.67161
234 1 -1.1104 1.06099 8.37112 6.74349
135 2 2.2208 -0.257896 15.3146 2.48063
240 2 2.2208 5.19978 6.95461 10.988
241 2 2.2208 5.14479 12.4578 10.8311
242 1 -1.1104 0.944723 8.26465 12.4159
244 1 -1.1104 0.752176 8.35587 9.49161
246 1 -1.1104 1.07859 5.5352 12.1233
247 1 -1.1104 0.869096 11.0124 12.3527
250 2 2.2208 5.19207 9.75237 8.06474
251 1 -1.1104 1.14509 5.59253 9.25204
252 1 -1.1104 1.1217 11.1548 9.50474
255 1 -1.1104 3.74239 8.28436 12.2729
256 2 2.2208 2.36232 6.98141 7.99417
257 2 2.2208 2.42216 12.5623 8.09419
258 1 -1.1104 3.78963 8.0985 9.57756
259 2 2.2208 2.43715 9.67749 10.9326
260 1 -1.1104 3.80932 5.49203 12.2917
261 1 -1.1104 3.72424 11.1346 12.4717
262 1 -1.1104 3.92411 5.52469 9.59384
263 1 -1.1104 3.88089 10.8163 9.58196
245 1 -1.1104 6.59893 8.35974 9.49074
253 1 -1.1104 6.69776 5.48471 9.45653
254 1 -1.1104 6.49422 11.1372 9.37516
83 2 2.2208 -0.320277 12.5171 5.36016
249 1 -1.1104 6.65935 10.9745 12.1568
243 1 -1.1104 6.67383 8.27707 12.265
322 1 -1.1104 9.34189 14.0268 12.2604
267 1 -1.1104 9.59655 8.1403 6.66654
101 1 -1.1104 9.58512 11.0847 6.55317
90 1 -1.1104 12.3144 11.1777 6.57801
321 1 -1.1104 9.3941 19.7076 12.2264
248 1 -1.1104 6.56214 5.45594 12.5009
317 2 2.2208 7.95199 15.314 10.8233
53 2 2.2208 13.5787 12.5704 7.9717
363 2 2.2208 13.5567 18.1883 13.5279
264 1 -1.1104 9.29204 11.0537 9.34032
268 1 -1.1104 9.47537 5.58525 9.51427
270 1 -1.1104 9.41802 11.2073 12.2916
271 1 -1.1104 9.29289 5.57852 12.2708
272 2 2.2208 8.00022 9.67085 10.8118
273 1 -1.1104 9.46574 8.37243 9.46933
274 2 2.2208 8.1028 12.47 8.0215
275 2 2.2208 8.03151 6.87837 8.09107
276 2 2.2208 10.8233 7.02161 10.8534
277 2 2.2208 10.8213 12.6381 10.949
278 1 -1.1104 12.2638 8.44732 12.1559
279 1 -1.1104 12.2164 8.4867 9.46322
280 1 -1.1104 12.172 5.69207 12.2438
281 1 -1.1104 12.1296 11.0975 12.3422
282 2 2.2208 10.756 9.6811 8.01067
283 1 -1.1104 12.2543 5.63867 9.47916
284 1 -1.1104 12.1172 11.198 9.39233
285 1 -1.1104 9.4737 8.29136 12.2724
199 2 2.2208 -0.318672 4.23909 7.98635
332 2 2.2208 13.5614 18.1763 8.14916
28 2 2.2208 13.611 20.9744 10.8376
118 1 -1.1104 6.58688 16.5348 6.7348
324 2 2.2208 10.7502 20.9472 8.11733
288 1 -1.1104 6.60505 19.6246 9.43707
290 1 -1.1104 6.6578 13.8473 9.46402
297 1 -1.1104 6.47238 13.7627 12.2163
296 1 -1.1104 6.57688 19.5627 12.3277
310 2 2.2208 2.31343 15.323 10.87
305 1 -1.1104 3.7568 13.9682 9.47601
309 2 2.2208 2.45896 20.9454 10.8601
301 1 -1.1104 3.84856 19.4259 9.43805
304 1 -1.1104 3.85495 16.7708 9.54352
298 1 -1.1104 1.13976 19.5315 12.162
295 2 2.2208 5.19892 15.3044 8.22599
300 2 2.2208 5.1562 18.255 10.9118
308 1 -1.1104 3.80233 16.7382 12.1857
307 1 -1.1104 1.04511 16.7411 12.3088
299 1 -1.1104 0.915745 13.871 12.2011
303 2 2.2208 2.48272 17.8715 7.9527
286 1 -1.1104 3.83179 19.5055 12.2536
287 1 -1.1104 3.63334 13.9633 12.2498
291 1 -1.1104 1.05876 19.5464 9.63955
292 1 -1.1104 0.978186 16.734 9.39525
293 2 2.2208 5.17103 20.9541 8.05619
294 1 -1.1104 0.785794 13.9575 9.47734
289 1 -1.1104 6.55395 16.8745 9.56646
328 1 -1.1104 12.3114 14.0342 9.51201
357 2 2.2208 2.40282 18.0945 13.6164
306 1 -1.1104 6.59468 16.8957 12.296
319 1 -1.1104 9.43049 13.796 9.33568
326 1 -1.1104 12.1958 16.8535 12.3115
320 2 2.2208 7.96657 18.137 8.16972
49 2 2.2208 13.6281 1.31443 2.52289
315 1 -1.1104 9.41804 16.7906 12.2685
9020 2 2.2208 2.41732 -4.2426 13.5802
347 2 2.2208 8.09342 15.2069 -0.274809
348 2 2.2208 10.9266 18.1559 -0.355045
360 2 2.2208 10.8514 21.0011 13.527
378 2 2.2208 13.5961 4.18954 -0.299856
369 2 2.2208 10.7625 1.39554 -0.307573
385 2 2.2208 8.15509 9.65203 -0.349915
374 2 2.2208 5.24456 18.0128 -0.294628
349 2 2.2208 8.12483 20.8595 -0.281301
336 2 2.2208 13.5336 7.08357 13.5433
9012 2 2.2208 5.14624 -4.29655 -0.233227
350 2 2.2208 10.7026 4.20638 13.6194
386 2 2.2208 10.9291 12.5402 -0.24386
356 2 2.2208 8.05413 12.3537 13.5321
381 2 2.2208 5.28241 12.3863 -0.250533
355 2 2.2208 10.7529 9.68398 13.5576
370 2 2.2208 8.02216 -1.4996 -0.29746
384 2 2.2208 10.7867 6.93751 -0.321322
388 2 2.2208 5.14695 1.2909 16.6483
389 1 -1.1104 0.913309 -2.85462 17.8236
390 1 -1.1104 1.10697 2.65099 17.7464
393 1 -1.1104 0.991108 -2.95234 14.9875
395 1 -1.1104 0.848353 2.86395 15.0515
401 1 -1.1104 0.87788 -0.0366476 17.6911
403 2 2.2208 5.17721 -1.55813 19.3712
405 1 -1.1104 0.661444 -0.0893844 14.9881
409 1 -1.1104 3.68647 -2.91792 17.8887
410 1 -1.1104 3.8271 2.73439 17.9773
411 2 2.2208 2.30687 1.36823 19.2046
412 1 -1.1104 3.73773 -2.69597 14.9983
414 1 -1.1104 3.712 2.80923 15.1926
416 2 2.2208 2.38825 -1.43599 16.4299
417 2 2.2208 2.42004 4.25989 16.6069
418 1 -1.1104 3.72793 -0.184211 17.906
419 1 -1.1104 3.64942 0.00422702 15.1346
407 1 -1.1104 6.57826 -0.13892 15.1451
404 2 2.2208 5.13068 4.16955 19.476
394 1 -1.1104 0.865278 -2.82898 20.5326
396 1 -1.1104 0.888472 2.7638 20.5809
402 1 -1.1104 6.47943 -0.112014 17.9539
415 1 -1.1104 3.64165 2.63338 20.6772
399 1 -1.1104 6.45486 2.73092 15.2647
392 1 -1.1104 6.6247 2.6643 18.1618
391 1 -1.1104 6.54824 -2.95436 17.9172
397 1 -1.1104 6.51934 -2.78758 15.0994
408 1 -1.1104 6.5858 -0.172777 20.7054
406 1 -1.1104 0.990209 -0.0916877 20.627
398 1 -1.1104 6.51685 -2.86169 20.6725
459 2 2.2208 13.5588 -1.5359 16.5667
9158 2 2.2208 2.33384 -4.24641 19.2194
651 2 2.2208 13.6104 6.96854 19.2523
431 2 2.2208 10.6456 1.2928 16.6103
432 1 -1.1104 12.197 -2.80228 17.9511
433 1 -1.1104 12.0046 2.77905 17.9598
434 1 -1.1104 12.17 -2.99365 15.1378
436 1 -1.1104 12.2805 2.64293 15.0769
438 1 -1.1104 11.9848 -0.01556 18.0195
439 2 2.2208 10.7328 -1.586 19.3094
440 2 2.2208 10.7144 4.08629 19.2748
441 1 -1.1104 12.142 -0.0343623 15.0959
443 1 -1.1104 9.47957 -2.96009 17.8104
444 1 -1.1104 9.22062 2.74997 17.8928
445 2 2.2208 7.97423 1.24806 19.4649
446 1 -1.1104 9.42236 -2.99967 14.9526
448 1 -1.1104 9.40939 2.75721 15.0706
450 2 2.2208 8.0224 -1.49383 16.568
451 2 2.2208 8.0059 4.19558 16.505
452 1 -1.1104 9.3025 -0.209361 17.9478
453 1 -1.1104 9.40444 -0.128193 15.1922
447 1 -1.1104 9.31457 -2.89721 20.6818
449 1 -1.1104 9.33811 2.66737 20.7478
435 1 -1.1104 11.9761 -3.02112 20.6217
437 1 -1.1104 12.064 2.6553 20.6422
9092 2 2.2208 2.38876 -4.13937 24.9035
442 1 -1.1104 12.2095 -0.200793 20.7694
9159 2 2.2208 5.24474 -4.25911 16.4747
387 2 2.2208 13.6012 9.73422 27.5922
561 1 -1.1104 9.47931 13.723 23.4716
9093 2 2.2208 5.08155 -4.26934 21.9572
464 2 2.2208 5.17207 6.96478 16.5902
465 2 2.2208 5.15421 12.647 16.5402
466 1 -1.1104 0.880348 8.31563 17.7728
468 1 -1.1104 0.991039 8.27328 15.1094
472 1 -1.1104 0.978286 5.66567 17.8755
473 1 -1.1104 0.891301 11.2634 17.8555
476 2 2.2208 5.22668 9.88331 19.3117
477 1 -1.1104 1.00263 5.43186 15.0464
479 1 -1.1104 0.825152 11.1421 15.1647
485 1 -1.1104 3.81749 8.34961 17.9461
486 2 2.2208 2.34605 7.04277 19.3592
487 2 2.2208 2.21089 12.5806 19.2376
488 1 -1.1104 3.77645 8.41362 15.0472
490 2 2.2208 2.27641 9.76095 16.5149
491 1 -1.1104 3.67708 5.65383 18.0286
492 1 -1.1104 3.65768 11.222 17.9143
493 1 -1.1104 3.85395 5.56368 15.0252
495 1 -1.1104 3.7127 11.1601 15.0533
481 1 -1.1104 6.69562 5.70537 15.2514
489 1 -1.1104 3.5723 8.5441 20.6487
474 1 -1.1104 6.51098 5.51127 17.9208
470 1 -1.1104 6.64186 8.33219 14.9866
475 1 -1.1104 6.48929 11.2392 17.9375
483 1 -1.1104 6.54913 11.1343 15.1023
478 1 -1.1104 0.946544 5.56935 20.6049
494 1 -1.1104 3.76055 5.55367 20.6602
482 1 -1.1104 6.61954 5.56603 20.8058
471 1 -1.1104 6.48274 8.34893 20.6252
484 1 -1.1104 6.6682 11.0876 20.7046
653 2 2.2208 13.5181 -1.50622 22.2141
467 1 -1.1104 6.59977 8.54568 17.9041
500 2 2.2208 10.8083 6.92134 16.4658
501 2 2.2208 10.813 12.6628 16.4021
502 1 -1.1104 12.2294 8.4171 17.7582
503 1 -1.1104 12.163 8.51941 14.8259
505 1 -1.1104 12.2494 5.54561 17.6226
506 1 -1.1104 12.0243 11.29 17.9862
507 2 2.2208 10.73 9.85015 19.3681
508 1 -1.1104 12.2019 5.60763 15.0659
510 1 -1.1104 12.1901 11.325 15.1449
512 1 -1.1104 9.29212 8.3939 17.9428
513 2 2.2208 7.87425 7.11707 19.2799
514 2 2.2208 7.97461 12.5243 19.2204
515 1 -1.1104 9.43341 8.36269 15.0835
517 2 2.2208 8.00272 9.67408 16.4529
518 1 -1.1104 9.39211 5.63253 17.9607
519 1 -1.1104 9.28662 11.0617 17.9091
520 1 -1.1104 9.53579 5.42605 15.0694
522 1 -1.1104 9.36876 11.1526 15.0382
509 1 -1.1104 12.3778 5.42871 20.4723
516 1 -1.1104 9.39937 8.31625 20.6801
504 1 -1.1104 12.0117 8.36632 20.5593
511 1 -1.1104 12.3687 11.129 20.6849
366 2 2.2208 2.42365 4.04875 27.6316
364 2 2.2208 5.1927 1.29395 27.6384
429 2 2.2208 13.5989 4.11184 16.4238
422 2 2.2208 13.5545 9.65248 21.9921
527 2 2.2208 5.2494 18.1339 16.5426
528 1 -1.1104 0.936426 14.0648 17.8928
529 1 -1.1104 1.04097 19.5712 17.9492
532 1 -1.1104 0.96959 13.9231 14.9874
534 1 -1.1104 0.770881 19.6552 15.0048
540 1 -1.1104 0.762041 16.7151 17.8244
542 2 2.2208 5.0383 15.249 19.3569
543 2 2.2208 5.26702 20.901 19.1956
544 1 -1.1104 0.870452 16.7967 15.1178
548 1 -1.1104 3.84893 13.8492 17.982
549 1 -1.1104 3.80295 19.5588 17.8193
550 2 2.2208 2.34582 18.063 19.2899
551 1 -1.1104 3.67637 13.9525 15.1608
553 1 -1.1104 3.78389 19.5745 15.0359
555 2 2.2208 2.2661 15.255 16.4518
556 2 2.2208 2.39058 20.8415 16.5309
557 1 -1.1104 3.5492 16.59 17.8712
558 1 -1.1104 3.71417 16.7799 15.1615
552 1 -1.1104 3.68185 13.9718 20.7561
531 1 -1.1104 6.74134 19.6852 17.9077
546 1 -1.1104 6.56079 16.8573 15.1584
538 1 -1.1104 6.58235 19.5248 15.2969
530 1 -1.1104 6.61917 13.9514 17.8797
559 1 -1.1104 3.7278 16.7306 20.8055
536 1 -1.1104 6.52893 14.0455 15.086
545 1 -1.1104 0.943137 16.7214 20.7623
547 1 -1.1104 6.77938 16.8652 20.9134
554 1 -1.1104 3.93053 19.4441 20.5613
541 1 -1.1104 6.52454 16.9013 18.1344
563 2 2.2208 10.8429 18.2173 16.4732
564 1 -1.1104 12.3057 13.9974 17.9847
565 1 -1.1104 12.3013 19.4715 17.6969
566 1 -1.1104 12.0304 14.129 15.0903
568 1 -1.1104 12.1652 19.7063 15.0489
570 1 -1.1104 12.1671 16.743 17.824
571 2 2.2208 10.7697 15.2511 19.3278
572 2 2.2208 10.8712 20.9102 19.268
573 1 -1.1104 12.1117 16.8215 15.014
575 1 -1.1104 9.44942 13.9072 17.6828
576 1 -1.1104 9.48989 19.58 17.8316
577 2 2.2208 7.99187 18.1392 19.4854
578 1 -1.1104 9.26248 13.9152 14.9794
580 1 -1.1104 9.44448 19.5307 14.9725
582 2 2.2208 7.92397 15.2445 16.4454
583 2 2.2208 8.08044 20.9117 16.3647
584 1 -1.1104 9.35796 16.7793 17.9012
585 1 -1.1104 9.38063 16.8255 14.9395
579 1 -1.1104 9.39638 13.8669 20.6089
581 1 -1.1104 9.43241 19.6071 20.6442
574 1 -1.1104 12.2667 16.7401 20.6713
361 2 2.2208 10.742 15.4545 13.6882
619 2 2.2208 13.5267 15.3142 16.4882
567 1 -1.1104 12.2632 13.9429 20.7408
569 1 -1.1104 12.3491 19.4016 20.4738
586 1 -1.1104 9.47858 16.5643 20.7914
430 2 2.2208 13.5629 15.2841 22.0732
428 2 2.2208 13.4989 1.28608 19.3669
420 1 -1.1104 3.77374 -0.0899607 20.6415
413 1 -1.1104 3.77961 -2.84596 20.6213
400 1 -1.1104 6.37882 2.79865 20.9516
654 2 2.2208 13.5021 1.37506 24.942
650 2 2.2208 13.6601 12.6011 19.4588
591 2 2.2208 5.03998 1.30252 22.1588
592 1 -1.1104 0.992446 -3.03703 23.4481
593 1 -1.1104 0.935243 2.55975 23.439
596 1 -1.1104 1.05758 -2.85569 26.3189
597 1 -1.1104 1.02615 2.69077 26.251
600 1 -1.1104 0.964845 -0.168482 23.4313
602 2 2.2208 5.17607 -1.55232 24.8991
603 2 2.2208 5.12433 4.14243 24.8141
604 1 -1.1104 1.0203 -0.0197195 26.2414
606 1 -1.1104 3.70248 -2.88051 23.3978
607 1 -1.1104 3.60862 2.79852 23.4391
608 2 2.2208 2.37956 1.26551 24.8744
609 1 -1.1104 3.91354 -2.81331 26.2962
610 1 -1.1104 3.77292 2.65315 26.2479
611 2 2.2208 2.36028 -1.458 21.9747
612 2 2.2208 2.32812 4.09431 22.0705
613 1 -1.1104 3.81353 -0.195423 23.3566
614 1 -1.1104 3.63764 -0.191949 26.2373
595 1 -1.1104 6.48599 2.60924 23.5954
605 1 -1.1104 6.45235 0.00605745 26.0965
599 1 -1.1104 6.65907 2.73543 26.3083
598 1 -1.1104 6.54282 -2.91879 26.4468
524 1 -1.1104 12.2995 16.648 23.5416
498 1 -1.1104 12.2869 13.9372 26.3264
618 2 2.2208 13.6617 18.0939 19.2585
463 1 -1.1104 12.224 13.7661 23.4763
615 2 2.2208 7.96708 15.2813 22.1372
354 2 2.2208 8.09137 6.87344 13.7394
617 1 -1.1104 9.35883 16.6239 23.5384
454 1 -1.1104 9.33983 -0.0835747 20.7842
525 2 2.2208 10.7949 15.2529 24.951
526 2 2.2208 10.9363 20.9955 24.922
601 1 -1.1104 6.53629 -0.103511 23.405
594 1 -1.1104 6.48385 -2.78494 23.4784
359 2 2.2208 5.19482 15.4112 13.7373
423 2 2.2208 13.5458 4.09132 21.9422
627 2 2.2208 10.7805 1.31439 22.1246
628 1 -1.1104 12.1607 -2.91583 23.27
629 1 -1.1104 12.1466 2.69811 23.4365
630 1 -1.1104 12.0198 -2.84471 26.353
631 1 -1.1104 12.1399 2.78991 26.3066
632 1 -1.1104 12.09 -0.101082 23.5003
633 2 2.2208 10.695 -1.41422 24.9093
635 1 -1.1104 12.1067 -0.068526 26.321
636 1 -1.1104 9.2879 -2.75022 23.5799
637 1 -1.1104 9.43212 2.69237 23.5053
638 2 2.2208 7.96377 1.40006 24.9129
639 1 -1.1104 9.2211 -2.79867 26.4051
640 1 -1.1104 9.44211 2.89798 26.355
641 2 2.2208 8.00256 -1.46512 22.1316
642 2 2.2208 8.00054 4.1395 21.9828
643 1 -1.1104 9.37155 0.0107299 23.5473
644 1 -1.1104 9.33969 0.0624277 26.2369
634 2 2.2208 10.8035 4.13897 24.9063
338 2 2.2208 5.19777 -1.33765 13.7431
365 2 2.2208 2.29867 -1.47004 27.6559
590 1 -1.1104 9.53569 19.401 26.2515
469 1 -1.1104 0.874348 8.50557 20.5787
480 1 -1.1104 0.949924 11.226 20.7305
496 1 -1.1104 3.8835 11.3069 20.6261
460 2 2.2208 13.6297 20.963 16.5297
656 2 2.2208 5.12136 6.91877 22.0706
657 2 2.2208 5.08967 12.639 22.1331
658 1 -1.1104 1.03354 8.37119 23.4131
660 1 -1.1104 1.02588 8.28991 26.2083
662 1 -1.1104 0.991125 5.49867 23.3808
663 1 -1.1104 0.963664 11.1416 23.6449
666 2 2.2208 5.18258 9.81251 24.9128
667 1 -1.1104 1.06209 5.46061 26.1883
668 1 -1.1104 0.892427 11.072 26.5274
671 1 -1.1104 3.73094 8.30895 23.3034
672 2 2.2208 2.37416 6.78942 24.8243
673 2 2.2208 2.26363 12.5134 24.9936
674 1 -1.1104 3.89156 8.20248 26.1741
675 2 2.2208 2.32451 9.7799 22.1168
676 1 -1.1104 3.72626 5.53808 23.381
677 1 -1.1104 3.69148 11.2369 23.6043
678 1 -1.1104 3.66766 5.44798 26.1646
679 1 -1.1104 3.74216 11.0895 26.2374
670 1 -1.1104 6.65391 11.0974 26.2314
589 1 -1.1104 9.34626 13.9111 26.2397
665 1 -1.1104 6.57029 11.0511 23.5201
659 1 -1.1104 6.53416 8.12585 23.4323
497 1 -1.1104 12.3796 19.3804 23.3911
523 1 -1.1104 9.32417 11.0473 20.786
521 1 -1.1104 9.36146 5.52003 20.6863
661 1 -1.1104 6.64488 8.28041 26.1366
664 1 -1.1104 6.60131 5.43009 23.4455
669 1 -1.1104 6.56061 5.50193 26.2427
708 2 2.2208 13.6172 12.5357 24.8531
383 2 2.2208 -0.243021 6.87384 27.6399
687 1 -1.1104 9.44718 11.1002 26.3864
688 1 -1.1104 9.33594 5.65318 26.2194
689 1 -1.1104 9.36569 10.9694 23.5769
690 1 -1.1104 9.36373 5.48318 23.5108
691 2 2.2208 7.85929 9.7464 22.1556
692 1 -1.1104 9.58498 8.33754 26.3791
693 2 2.2208 8.05574 12.4606 24.9547
694 2 2.2208 7.95532 6.84567 24.7681
695 2 2.2208 10.8214 6.86654 22.0618
696 2 2.2208 10.7405 12.2724 22.1505
697 1 -1.1104 12.2165 8.31295 23.4827
698 1 -1.1104 12.3548 8.30714 26.2794
699 1 -1.1104 12.1637 5.59772 23.5308
700 1 -1.1104 12.1496 11.0364 23.5147
701 2 2.2208 10.7858 9.68721 24.8384
702 1 -1.1104 12.1834 5.55278 26.2338
703 1 -1.1104 12.308 11.2296 26.3079
704 1 -1.1104 9.42652 8.2517 23.4514
710 2 2.2208 13.5827 6.92012 24.948
372 2 2.2208 7.95787 4.03184 27.676
535 1 -1.1104 1.09928 19.5098 20.7181
539 1 -1.1104 6.59785 19.5947 20.6072
616 2 2.2208 8.08774 20.8875 21.9801
533 1 -1.1104 0.905726 14.0097 20.5343
620 1 -1.1104 9.47135 16.7237 26.3648
712 1 -1.1104 6.53508 13.8262 26.4369
680 1 -1.1104 6.52364 16.6175 23.6431
588 1 -1.1104 6.63951 19.3459 26.3774
719 2 2.2208 5.42537 20.9556 24.863
717 1 -1.1104 0.941429 14.0049 26.2747
720 2 2.2208 5.16581 15.286 25.0529
647 2 2.2208 2.34133 15.3264 22.2694
649 2 2.2208 2.42652 20.8422 22.0189
652 1 -1.1104 3.76282 16.6498 23.55
655 1 -1.1104 0.966381 16.788 23.6401
681 1 -1.1104 3.82752 13.9834 26.4276
682 1 -1.1104 3.8286 16.853 26.2706
683 2 2.2208 2.4992 18.1389 24.9263
686 1 -1.1104 3.96012 19.4878 26.1836
705 2 2.2208 5.31237 18.0827 22.1856
706 1 -1.1104 0.937608 13.8996 23.4876
707 1 -1.1104 1.05913 19.5936 23.5481
711 1 -1.1104 3.85513 19.3784 23.3648
713 1 -1.1104 3.85044 13.922 23.6514
715 1 -1.1104 1.03046 19.4157 26.5302
716 1 -1.1104 0.998193 16.7358 26.2827
462 2 2.2208 10.9149 18.1022 22.1147
714 1 -1.1104 6.64103 16.5442 26.4155
709 1 -1.1104 6.69655 13.843 23.593
537 1 -1.1104 6.54975 14.1144 20.7368
718 1 -1.1104 6.84309 19.4633 23.5185
426 2 2.2208 13.5499 9.87615 16.5379
560 1 -1.1104 12.42 16.7231 26.4159
499 1 -1.1104 12.3064 19.549 26.2634
562 1 -1.1104 9.64283 19.4927 23.4229
587 2 2.2208 8.08792 18.092 25.0467
9091 2 2.2208 13.5518 -4.28434 24.8482
340 2 2.2208 13.5407 1.36293 13.7145
339 2 2.2208 2.26451 1.43653 13.8197
9015 2 2.2208 13.5313 -4.26188 13.7521
376 2 2.2208 13.4679 12.5482 13.7345
375 2 2.2208 2.42989 20.8987 27.6501
379 2 2.2208 5.21535 6.9669 27.5089
380 2 2.2208 2.39575 9.59411 27.7161
9008 2 2.2208 10.6356 -4.22586 27.6518
352 2 2.2208 5.11636 9.71352 13.7718
353 2 2.2208 2.33526 12.5708 13.6994
346 2 2.2208 10.8029 -1.46914 13.6915
358 2 2.2208 5.25708 21.0176 13.7054
341 2 2.2208 5.08013 4.07048 13.7818
362 2 2.2208 8.02867 18.1898 13.7387
343 2 2.2208 8.09069 1.25935 13.7672
721 2 2.2208 5.32019 23.7085 5.38832
722 2 2.2208 5.19651 29.3278 5.19309
723 1 -1.1104 1.00448 25.2054 1.13511
724 1 -1.1104 1.0597 25.1307 3.93393
725 1 -1.1104 1.06499 22.4389 1.17412
726 1 -1.1104 1.03038 27.9686 1.04161
727 2 2.2208 5.27285 26.5022 2.53786
728 1 -1.1104 0.989768 22.3612 4.00005
729 1 -1.1104 0.938833 27.9405 3.7201
730 1 -1.1104 3.94135 25.187 1.18208
731 2 2.2208 2.57528 23.7779 2.52206
732 2 2.2208 2.53354 29.3791 2.51502
733 1 -1.1104 3.83331 25.1696 3.93158
734 2 2.2208 2.44604 26.5198 5.15862
735 1 -1.1104 3.90873 22.4075 0.949341
736 1 -1.1104 3.80682 28.1328 1.01815
737 1 -1.1104 4.00108 22.3579 3.73927
738 1 -1.1104 4.00444 27.9561 3.82225
746 1 -1.1104 6.72549 22.1942 3.80334
742 1 -1.1104 6.75609 25.0604 1.05389
747 1 -1.1104 6.6842 28.026 3.77698
865 1 -1.1104 1.0682 27.9738 6.38057
870 1 -1.1104 3.82541 28.0024 6.6627
864 1 -1.1104 1.09526 22.344 6.58641
862 1 -1.1104 1.06917 25.1296 6.57879
868 1 -1.1104 3.94829 25.0185 6.67674
869 1 -1.1104 3.77719 22.3811 6.54439
744 1 -1.1104 6.52518 22.2964 0.761674
863 1 -1.1104 6.69637 25.11 6.51615
743 1 -1.1104 6.69753 25.0474 3.95857
1470 1 -1.1104 9.51519 47.4954 3.81898
1055 3 0 12.9351 37.5387 13.0431
867 1 -1.1104 6.47754 27.9538 6.61117
866 1 -1.1104 6.54577 22.1912 6.62184
745 1 -1.1104 6.57499 27.848 1.13451
748 2 2.2208 10.6656 23.7947 5.29195
749 2 2.2208 10.7769 29.3603 5.18395
750 1 -1.1104 12.3918 25.1439 1.01268
751 1 -1.1104 12.287 25.1721 3.70399
752 1 -1.1104 12.2836 22.3803 1.11509
753 1 -1.1104 12.2849 27.8873 1.04619
754 2 2.2208 10.963 26.5175 2.41106
755 1 -1.1104 12.3969 22.2863 3.94283
756 1 -1.1104 12.3297 27.8846 3.73553
757 1 -1.1104 9.61847 24.9617 0.981951
758 2 2.2208 8.15499 23.6911 2.31376
759 2 2.2208 8.0013 29.279 2.38756
760 1 -1.1104 9.26278 25.2557 3.7791
761 2 2.2208 7.97556 26.6684 5.17591
762 1 -1.1104 9.44922 22.2772 1.13526
763 1 -1.1104 9.56456 27.7399 1.03366
764 1 -1.1104 9.53328 22.3432 3.86502
765 1 -1.1104 9.51131 28.0335 3.80342
897 1 -1.1104 12.1485 27.862 6.54433
899 1 -1.1104 9.31044 22.3358 6.74182
898 1 -1.1104 9.31115 25.1754 6.65538
900 1 -1.1104 9.38294 27.9816 6.59285
766 2 2.2208 13.6617 23.7817 2.47475
896 1 -1.1104 12.1407 22.4995 6.69102
1078 2 2.2208 2.46805 37.7189 -0.340976
1040 2 2.2208 -0.349853 34.8436 10.8234
769 2 2.2208 5.24296 34.8626 5.12585
770 1 -1.1104 1.08617 30.7758 1.15366
771 1 -1.1104 1.02643 36.4055 0.934029
773 1 -1.1104 1.03306 30.887 3.85131
774 1 -1.1104 0.960681 36.4443 3.74684
776 1 -1.1104 0.90509 33.5983 0.976085
777 2 2.2208 5.2998 32.1575 2.33056
778 2 2.2208 5.26497 37.6916 2.40635
779 1 -1.1104 0.922293 33.6729 3.78339
781 1 -1.1104 3.90467 30.8674 1.10131
782 1 -1.1104 3.83209 36.3876 0.902317
783 2 2.2208 2.36962 35.0054 2.43661
784 1 -1.1104 3.88787 30.7061 3.78025
785 1 -1.1104 3.69191 36.3556 3.81907
786 2 2.2208 2.55676 32.1837 5.29194
787 2 2.2208 2.39163 37.9211 5.16254
788 1 -1.1104 3.84621 33.6574 1.29764
789 1 -1.1104 3.87303 33.4507 4.02664
925 1 -1.1104 3.94673 30.7403 6.61027
921 1 -1.1104 6.61741 30.6988 6.6895
775 1 -1.1104 6.72523 36.4049 3.88693
919 1 -1.1104 1.084 30.7346 6.48013
923 1 -1.1104 1.00879 33.4576 6.58193
927 1 -1.1104 3.82522 33.5315 6.78727
794 1 -1.1104 6.58605 30.8086 3.90406
920 1 -1.1104 0.997661 36.3807 6.45349
795 1 -1.1104 6.79652 33.3395 0.917869
780 1 -1.1104 6.67919 33.56 3.74562
772 1 -1.1104 6.67895 36.1237 1.13562
922 1 -1.1104 6.68191 36.2625 6.40253
793 1 -1.1104 6.74322 30.5499 1.03596
796 2 2.2208 10.8288 34.9364 5.28767
797 1 -1.1104 12.2154 30.6884 1.05546
798 1 -1.1104 12.3338 36.2043 1.01462
799 1 -1.1104 12.2709 30.6113 3.82843
800 1 -1.1104 12.2548 36.3334 3.86629
801 1 -1.1104 12.4077 33.4871 1.02492
802 2 2.2208 10.947 32.0034 2.54747