ITEM: TIMESTEP
40000
ITEM: NUMBER OF ATOMS
17670
ITEM: BOX BOUNDS pp pp pp
-3.5168215286577598e-01 2.7691682152866075e+01
-4.3318121187724650e+00 3.3241181211877142e+02
-3.6067992896224166e-01 2.7700679928961982e+01
ITEM: ATOMS id type q x y z
1 2 2.2208 5.14433 1.23401 5.41099
2 1 -1.1104 0.750664 -2.95086 1.15546
3 1 -1.1104 0.9418 2.7455 1.06063
6 1 -1.1104 0.933704 -2.89356 3.91615
7 1 -1.1104 1.02144 2.76825 3.93046
10 1 -1.1104 0.856838 -0.129773 1.09224
12 2 2.2208 5.10513 -1.47771 2.57677
13 2 2.2208 5.29866 4.14258 2.4584
14 1 -1.1104 1.00638 -0.229556 3.875
16 1 -1.1104 3.64329 -2.94526 1.17568
17 1 -1.1104 3.61347 2.65026 0.973827
18 2 2.2208 2.59008 1.20341 2.46647
19 1 -1.1104 3.61364 -2.95132 3.95368
20 1 -1.1104 3.95447 2.71041 3.83666
21 2 2.2208 2.2739 -1.60394 5.26093
22 2 2.2208 2.4568 4.13566 5.27967
23 1 -1.1104 3.78075 -0.28935 1.16168
24 1 -1.1104 3.82869 -0.153788 4.01733
4 1 -1.1104 6.39678 -2.90491 0.949856
11 1 -1.1104 6.51103 -0.0173537 1.15448
8 1 -1.1104 6.47365 -3.03115 3.77884
169 1 -1.1104 6.48874 2.68868 6.78069
172 1 -1.1104 3.64296 -2.86334 6.75086
173 1 -1.1104 3.62801 2.67137 6.58599
166 1 -1.1104 0.796711 -2.9571 6.6995
5 1 -1.1104 6.67624 2.78545 1.01823
167 1 -1.1104 0.996012 2.61963 6.6799
171 1 -1.1104 6.60309 -0.12548 6.66612
174 1 -1.1104 3.79257 -0.245214 6.64443
9 1 -1.1104 6.65445 2.63519 3.88807
15 1 -1.1104 6.53175 -0.230144 3.89628
202 2 2.2208 13.6387 7.03597 8.08306
31 2 2.2208 10.7767 1.28342 5.1356
32 1 -1.1104 12.1283 -2.98495 1.00969
33 1 -1.1104 12.1835 2.71384 0.948154
34 1 -1.1104 12.2014 -2.7985 3.80034
35 1 -1.1104 12.1462 2.71369 3.83907
36 1 -1.1104 12.2256 -0.242034 1.07719
37 2 2.2208 10.6936 -1.56436 2.4186
39 1 -1.1104 12.2235 -0.038909 3.87381
40 1 -1.1104 9.30542 -2.70443 0.866955
41 1 -1.1104 9.4455 2.74043 0.973143
42 2 2.2208 7.9831 1.26325 2.48444
43 1 -1.1104 9.40683 -2.99529 3.85589
44 1 -1.1104 9.40899 2.53504 3.79459
45 2 2.2208 8.09048 -1.68103 5.32999
46 2 2.2208 8.06892 4.08527 5.34256
47 1 -1.1104 9.30127 -0.116947 1.05806
48 1 -1.1104 9.36443 -0.218226 3.82247
38 2 2.2208 10.7937 4.08003 2.42411
206 1 -1.1104 12.3107 2.60639 6.53246
210 1 -1.1104 9.43402 -0.229757 6.72271
205 1 -1.1104 12.0348 -2.80871 6.67529
208 1 -1.1104 9.31772 -3.018 6.81588
207 1 -1.1104 12.1561 -0.0525599 6.49838
209 1 -1.1104 9.27006 2.69221 6.65923
8997 2 2.2208 10.693 -4.36834 5.31129
8999 2 2.2208 2.35644 -4.29828 7.98543
54 2 2.2208 5.19085 6.84418 5.33996
55 2 2.2208 5.14239 12.4184 5.30023
56 1 -1.1104 1.18138 8.34388 1.1561
58 1 -1.1104 0.936128 8.35474 3.95473
60 1 -1.1104 0.955264 5.58916 1.15
61 1 -1.1104 0.969855 11.0591 1.12711
66 2 2.2208 5.24417 9.70562 2.52901
67 1 -1.1104 0.983232 5.62771 3.92449
68 1 -1.1104 1.06461 11.0842 3.96084
71 1 -1.1104 3.95315 8.27177 1.0251
72 2 2.2208 2.40321 6.95754 2.44288
73 2 2.2208 2.46271 12.404 2.52324
74 1 -1.1104 3.72406 8.17846 3.95285
75 2 2.2208 2.35074 9.66278 5.27486
76 1 -1.1104 3.7222 5.54832 0.918322
77 1 -1.1104 3.64554 10.9989 1.01203
79 1 -1.1104 3.85153 5.4504 3.73772
80 1 -1.1104 3.85939 10.9981 4.03262
64 1 -1.1104 6.52158 11.1551 1.02377
235 1 -1.1104 6.74749 8.33645 6.7293
234 1 -1.1104 1.03692 8.20719 6.76042
62 1 -1.1104 0.942503 10.8683 6.68719
57 1 -1.1104 6.70483 8.35089 1.06876
239 1 -1.1104 3.90217 5.49347 6.55887
65 1 -1.1104 6.65259 11.0158 6.75467
69 1 -1.1104 6.62946 5.51368 4.00553
70 1 -1.1104 6.67672 11.0348 3.8779
78 1 -1.1104 3.9204 11.1509 6.71877
236 1 -1.1104 1.06076 5.36816 6.70151
82 2 2.2208 -0.413671 9.47764 2.42736
105 2 2.2208 13.6314 6.91324 2.45247
63 1 -1.1104 6.57637 5.53896 1.02684
59 1 -1.1104 6.5399 8.28403 3.97541
232 2 2.2208 13.6581 9.64469 5.17324
30 2 2.2208 -0.54674 9.57953 8.11272
84 2 2.2208 10.8137 6.8633 5.28863
85 2 2.2208 10.8808 12.4652 5.2322
86 1 -1.1104 12.0694 8.35172 1.00746
87 1 -1.1104 12.4084 8.36417 3.72899
88 1 -1.1104 12.2424 5.59806 1.09598
89 1 -1.1104 12.2418 11.1651 1.01413
91 2 2.2208 10.8721 9.7161 2.44888
92 1 -1.1104 12.1133 5.56355 3.9445
93 1 -1.1104 12.1274 11.131 3.84027
94 1 -1.1104 9.41538 8.21199 1.18224
95 2 2.2208 8.07513 6.98763 2.49955
96 2 2.2208 8.05591 12.4672 2.45755
97 1 -1.1104 9.33066 8.29438 3.93075
98 2 2.2208 8.16526 9.67389 5.30961
99 1 -1.1104 9.3609 5.39805 1.12535
100 1 -1.1104 9.55118 11.1883 1.12159
102 1 -1.1104 9.43826 5.35996 3.81084
103 1 -1.1104 9.39733 11.0505 3.8629
90 1 -1.1104 12.1794 11.0307 6.55075
265 1 -1.1104 12.2581 8.26748 6.68876
266 1 -1.1104 12.1437 5.35297 6.60881
101 1 -1.1104 9.39575 11.0389 6.74034
267 1 -1.1104 9.38845 8.34965 6.67979
269 1 -1.1104 9.31949 5.46617 6.65472
203 2 2.2208 13.6328 4.13282 10.9039
106 2 2.2208 5.28997 18.0044 5.38051
107 1 -1.1104 1.08045 13.9064 1.15318
109 1 -1.1104 1.15478 19.5136 1.17499
113 1 -1.1104 1.01764 13.7293 3.81104
114 1 -1.1104 0.984984 19.4089 3.92691
116 1 -1.1104 0.815166 16.8036 1.1818
119 2 2.2208 5.15744 15.3103 2.54461
120 2 2.2208 5.34253 20.8166 2.57169
121 1 -1.1104 0.925498 16.5788 3.90278
123 1 -1.1104 3.77555 13.7346 1.20427
125 1 -1.1104 3.94562 19.4279 1.11754
127 2 2.2208 2.48731 18.1199 2.57945
128 1 -1.1104 3.66116 13.7549 3.88485
129 1 -1.1104 3.88323 19.3231 3.97295
130 2 2.2208 2.29476 15.1738 5.26464
131 2 2.2208 2.53462 20.845 5.38905
132 1 -1.1104 3.65572 16.5776 1.08404
134 1 -1.1104 3.79652 16.6624 4.00215
302 1 -1.1104 0.973639 19.3528 6.80332
140 1 -1.1104 6.50606 16.6967 1.057
115 1 -1.1104 6.48129 13.9535 3.92238
110 1 -1.1104 6.56209 13.8628 1.01214
118 1 -1.1104 6.61026 16.8156 6.67117
138 1 -1.1104 6.52688 19.3582 1.17044
122 1 -1.1104 6.5841 16.683 3.94387
126 1 -1.1104 3.87552 19.3459 6.7182
124 1 -1.1104 3.82804 13.8421 6.68542
108 1 -1.1104 1.08824 13.8041 6.66472
117 1 -1.1104 0.703719 16.5894 6.61921
139 1 -1.1104 6.76647 19.3208 3.99176
133 1 -1.1104 3.72708 16.7287 6.80278
104 2 2.2208 13.7355 12.5545 2.4593
111 1 -1.1104 6.5578 13.9581 6.64905
26 2 2.2208 -0.502411 1.2938 5.27643
141 2 2.2208 10.8134 18.2048 5.24633
142 1 -1.1104 12.4093 13.9937 1.15022
144 1 -1.1104 12.1886 19.5709 1.0334
146 1 -1.1104 12.2124 13.768 3.88837
147 1 -1.1104 12.2766 19.4935 3.8442
148 1 -1.1104 12.1676 16.7413 1.0032
150 2 2.2208 10.7748 15.3221 2.40532
151 2 2.2208 10.7895 20.8998 2.41095
152 1 -1.1104 12.29 16.7381 3.8023
153 1 -1.1104 9.46716 14.0827 1.03174
155 1 -1.1104 9.41281 19.5103 1.12104
157 2 2.2208 8.10291 18.1076 2.53117
158 1 -1.1104 9.43376 13.9796 3.92467
159 1 -1.1104 9.41475 19.6502 3.88776
160 2 2.2208 8.01295 15.1969 5.27374
161 2 2.2208 7.96276 20.9265 5.23188
162 1 -1.1104 9.26812 16.7755 1.05511
164 1 -1.1104 9.45484 16.7536 3.95652
156 1 -1.1104 9.43689 19.5403 6.6387
163 1 -1.1104 9.43079 16.6148 6.61522
231 2 2.2208 13.6554 20.8811 5.3622
145 1 -1.1104 12.3328 19.601 6.70853
154 1 -1.1104 9.36203 13.7484 6.70399
143 1 -1.1104 12.3736 13.8829 6.73778
112 1 -1.1104 6.79368 19.5021 6.71725
170 1 -1.1104 0.958922 -0.112909 6.54018
175 2 2.2208 5.08349 1.31835 11.0013
176 1 -1.1104 0.762186 -2.7942 12.354
177 1 -1.1104 0.916961 2.62999 12.3012
180 1 -1.1104 0.979843 -2.92694 9.45902
181 1 -1.1104 1.02493 2.55954 9.32464
184 1 -1.1104 0.959231 -0.129563 12.3211
186 2 2.2208 5.16247 -1.51912 8.10488
187 2 2.2208 5.32529 4.16457 8.09257
188 1 -1.1104 0.840472 -0.12654 9.33922
190 1 -1.1104 3.67956 -3.04018 12.3501
191 1 -1.1104 3.67318 2.49688 12.2518
192 2 2.2208 2.41637 1.10546 7.97047
193 1 -1.1104 3.81882 -2.86387 9.55181
194 1 -1.1104 3.91397 2.64016 9.46951
195 2 2.2208 2.38273 -1.61558 10.9782
196 2 2.2208 2.35798 3.89048 10.819
197 1 -1.1104 3.90617 -0.221929 12.3918
198 1 -1.1104 3.65345 -0.205784 9.52903
182 1 -1.1104 6.68073 -2.90466 9.44914
185 1 -1.1104 6.60608 -0.121278 12.302
386 2 2.2208 10.8179 12.592 -0.314216
183 1 -1.1104 6.63769 2.72277 9.44204
179 1 -1.1104 6.59261 2.65803 12.1459
178 1 -1.1104 6.56123 -3.01091 12.2426
189 1 -1.1104 6.49198 -0.157155 9.66255
9003 2 2.2208 10.6657 -4.3816 10.8423
346 2 2.2208 10.8235 -1.50273 13.6464
168 1 -1.1104 6.48093 -2.91581 6.53119
52 2 2.2208 13.7433 9.73881 10.9299
343 2 2.2208 7.88596 1.2294 13.5862
319 1 -1.1104 9.23218 13.9575 9.40491
8996 2 2.2208 7.90234 -4.37451 2.42463
229 2 2.2208 13.6392 1.24796 8.03721
211 2 2.2208 10.8704 1.33138 10.8519
212 1 -1.1104 12.1959 -2.99674 12.1894
213 1 -1.1104 12.1165 2.75663 12.4191
214 1 -1.1104 12.1235 -3.14041 9.5187
215 1 -1.1104 12.3127 2.64504 9.44129
216 1 -1.1104 12.2264 -0.178475 12.3958
217 2 2.2208 10.7671 -1.5953 8.16301
218 2 2.2208 11.0458 3.98841 8.05794
219 1 -1.1104 12.2223 -0.259886 9.44644
220 1 -1.1104 9.4305 -3.02359 12.2204
221 1 -1.1104 9.23379 2.55079 12.281
222 2 2.2208 7.95455 1.20241 8.17709
223 1 -1.1104 9.43967 -2.94425 9.46434
224 1 -1.1104 9.52173 2.62849 9.48248
225 2 2.2208 8.00876 -1.67394 10.8965
226 2 2.2208 8.13416 3.94426 10.8293
227 1 -1.1104 9.41088 -0.376056 12.2598
228 1 -1.1104 9.43419 -0.152982 9.61985
49 2 2.2208 13.4493 1.3097 2.35459
230 2 2.2208 13.5636 -1.56144 10.8669
330 1 -1.1104 12.3354 13.9518 12.2227
238 1 -1.1104 3.89403 8.30539 6.80828
351 2 2.2208 2.26096 6.74734 13.6581
240 2 2.2208 5.18169 6.86029 10.9007
241 2 2.2208 5.23204 12.4466 10.8249
242 1 -1.1104 0.907843 8.28562 12.3142
244 1 -1.1104 0.985467 8.36333 9.41594
246 1 -1.1104 1.07422 5.45554 12.1179
247 1 -1.1104 1.02183 10.9843 12.4721
250 2 2.2208 5.18665 9.7767 8.15713
251 1 -1.1104 0.894133 5.43824 9.42025
252 1 -1.1104 1.00464 10.9826 9.68377
255 1 -1.1104 3.8195 8.17492 12.3302
256 2 2.2208 2.31167 6.86977 8.1326
257 2 2.2208 2.45107 12.2941 8.10818
258 1 -1.1104 3.74488 8.19964 9.62012
259 2 2.2208 2.43763 9.55872 10.9197
260 1 -1.1104 3.7601 5.43293 12.1791
261 1 -1.1104 3.85174 11.0012 12.2781
262 1 -1.1104 3.72738 5.34456 9.25517
263 1 -1.1104 3.86879 10.9775 9.45753
253 1 -1.1104 6.6695 5.53837 9.59958
254 1 -1.1104 6.69612 11.0591 9.44604
248 1 -1.1104 6.43212 5.39773 12.3731
245 1 -1.1104 6.65955 8.30848 9.49282
243 1 -1.1104 6.60426 8.32199 12.219
249 1 -1.1104 6.46989 11.1433 12.3833
28 2 2.2208 13.626 20.9432 10.7914
341 2 2.2208 5.18833 4.08766 13.67
237 1 -1.1104 6.56717 5.54268 6.69692
327 1 -1.1104 12.1357 19.4711 9.554
323 1 -1.1104 12.169 16.6026 9.41705
317 2 2.2208 7.91447 15.348 10.8054
376 2 2.2208 13.5305 12.4144 13.7779
264 1 -1.1104 9.48063 11.1763 9.40475
268 1 -1.1104 9.49798 5.33877 9.5115
270 1 -1.1104 9.31642 11.0728 12.3438
271 1 -1.1104 9.27605 5.38536 12.3257
272 2 2.2208 8.09219 9.64835 10.8225
273 1 -1.1104 9.35286 8.24514 9.53996
274 2 2.2208 7.99566 12.4158 8.07514
275 2 2.2208 8.04443 6.88031 7.96508
276 2 2.2208 10.7937 6.86663 10.8915
277 2 2.2208 10.7675 12.464 10.871
278 1 -1.1104 12.3141 8.32243 12.361
279 1 -1.1104 12.3037 8.33216 9.61548
280 1 -1.1104 12.1102 5.64013 12.2589
281 1 -1.1104 12.1599 11.1292 12.354
282 2 2.2208 10.8298 9.69627 8.08328
283 1 -1.1104 12.1856 5.45301 9.34679
284 1 -1.1104 12.3223 10.9989 9.41688
285 1 -1.1104 9.44248 8.29985 12.2634
322 1 -1.1104 9.29426 14.018 12.3378
9000 2 2.2208 5.15131 -4.37115 10.8588
340 2 2.2208 13.4903 1.24997 13.7113
9002 2 2.2208 7.92132 -4.43883 8.02885
324 2 2.2208 10.8527 20.9365 8.06571
316 2 2.2208 8.02866 20.9366 10.8015
296 1 -1.1104 6.72937 19.6178 12.292
310 2 2.2208 2.37425 15.2496 10.8568
305 1 -1.1104 3.85026 13.7906 9.4284
309 2 2.2208 2.31571 20.9973 10.7844
301 1 -1.1104 3.80297 19.4657 9.41892
304 1 -1.1104 3.75377 16.5862 9.45861
298 1 -1.1104 0.978342 19.5819 12.3446
295 2 2.2208 5.13343 15.2743 7.98602
300 2 2.2208 5.22387 17.9727 10.8057
308 1 -1.1104 3.82371 16.5055 12.2183
307 1 -1.1104 0.876832 16.7954 12.2968
299 1 -1.1104 0.79459 13.8096 12.273
303 2 2.2208 2.33271 18.0946 8.02668
286 1 -1.1104 3.82623 19.4558 12.2454
287 1 -1.1104 3.58978 13.8413 12.3135
291 1 -1.1104 1.03832 19.4412 9.5486
292 1 -1.1104 1.05137 16.6118 9.44422
293 2 2.2208 5.24652 20.8717 8.0844
294 1 -1.1104 0.952184 13.7131 9.50246
290 1 -1.1104 6.56349 13.8466 9.50863
297 1 -1.1104 6.46527 13.9257 12.267
289 1 -1.1104 6.72612 16.7262 9.46605
288 1 -1.1104 6.64841 19.44 9.43394
306 1 -1.1104 6.4793 16.6906 12.1885
355 2 2.2208 10.7536 9.75413 13.8402
326 1 -1.1104 12.1943 16.6816 12.2904
328 1 -1.1104 12.1476 13.7887 9.45674
331 2 2.2208 10.7564 18.1872 10.7745
149 1 -1.1104 12.0526 16.6896 6.48683
325 2 2.2208 10.8313 15.2537 8.082
329 1 -1.1104 12.2324 19.5647 12.3551
8993 2 2.2208 2.38969 -4.39922 2.52091
363 2 2.2208 13.5986 18.1717 13.6102
332 2 2.2208 13.5578 18.0349 8.01532
360 2 2.2208 10.8098 21.0302 13.6434
333 2 2.2208 13.7044 15.2291 10.8646
321 1 -1.1104 9.47375 19.5628 12.1514
320 2 2.2208 8.10775 18.0653 7.94205
315 1 -1.1104 9.36689 16.6541 12.1272
318 1 -1.1104 9.41762 19.551 9.37595
314 1 -1.1104 9.41002 16.7588 9.34207
377 2 2.2208 13.5269 -1.53952 -0.436052
345 2 2.2208 13.6737 20.8823 -0.429962
369 2 2.2208 10.7594 1.37488 -0.414646
384 2 2.2208 10.7819 6.91782 -0.339869
350 2 2.2208 10.6577 4.18429 13.7047
366 2 2.2208 2.31207 4.07527 -0.306332
347 2 2.2208 7.90975 15.3366 -0.47748
367 2 2.2208 -0.463577 9.69011 13.7273
383 2 2.2208 -0.443734 6.82984 -0.420326
385 2 2.2208 8.10738 9.80307 -0.378769
364 2 2.2208 5.17247 1.26659 -0.39061
357 2 2.2208 2.44283 18.0672 13.6914
379 2 2.2208 5.24107 6.90917 -0.319493
349 2 2.2208 7.92784 20.7972 -0.323208
353 2 2.2208 2.45192 12.3828 13.8408
344 2 2.2208 13.678 15.3207 -0.352523
9015 2 2.2208 13.5943 -4.40267 13.603
339 2 2.2208 2.30355 1.0948 13.743
373 2 2.2208 2.40247 15.2835 -0.382756
388 2 2.2208 5.06055 1.1883 16.5203
389 1 -1.1104 1.00274 -2.93991 17.8965
390 1 -1.1104 0.769208 2.5337 17.8493
393 1 -1.1104 0.778515 -2.72847 15.013
395 1 -1.1104 0.998583 2.54148 15.0271
401 1 -1.1104 0.899301 -0.196277 17.8687
403 2 2.2208 5.0025 -1.38508 19.377
404 2 2.2208 5.04106 4.18142 19.3352
405 1 -1.1104 0.936933 -0.095107 15.2134
409 1 -1.1104 3.69348 -2.96757 18.0299
410 1 -1.1104 3.67964 2.58829 17.8775
411 2 2.2208 2.16262 1.18576 19.2695
412 1 -1.1104 3.6779 -3.06142 15.1189
414 1 -1.1104 3.79233 2.59278 15.0244
416 2 2.2208 2.25098 -1.61796 16.5282
417 2 2.2208 2.29524 3.93282 16.5141
418 1 -1.1104 3.62427 -0.0951786 17.9463
419 1 -1.1104 3.64439 -0.127278 15.0342
394 1 -1.1104 1.05517 -2.93405 20.7717
391 1 -1.1104 6.44114 -2.9625 17.8019
397 1 -1.1104 6.60307 -3.10693 14.9273
407 1 -1.1104 6.22752 -0.344448 15.1195
420 1 -1.1104 3.5007 -0.0579456 20.9681
413 1 -1.1104 3.90414 -2.78825 20.6955
402 1 -1.1104 6.4168 -0.0549575 17.9946
392 1 -1.1104 6.58405 2.65892 17.8042
398 1 -1.1104 6.47665 -2.72621 20.9063
396 1 -1.1104 0.761305 2.49743 20.7571
415 1 -1.1104 3.58544 2.73251 20.6387
406 1 -1.1104 0.861073 -0.185916 20.6879
399 1 -1.1104 6.66717 2.6118 15.009
650 2 2.2208 13.5375 12.4928 19.3375
400 1 -1.1104 6.56108 2.77933 20.7457
431 2 2.2208 10.7045 1.24797 16.471
432 1 -1.1104 12.1349 -2.71916 17.8489
433 1 -1.1104 12.1313 2.78747 17.8351
434 1 -1.1104 12.1845 -2.99941 15.0519
436 1 -1.1104 12.1567 2.56298 15.1458
438 1 -1.1104 12.1297 -0.0525514 17.8421
439 2 2.2208 10.6443 -1.42914 19.2636
440 2 2.2208 10.6642 4.00695 19.3291
441 1 -1.1104 12.1091 -0.218796 14.9903
443 1 -1.1104 9.28539 -2.79155 17.7752
444 1 -1.1104 9.41511 2.68512 17.9287
445 2 2.2208 7.839 1.32758 19.2782
446 1 -1.1104 9.38477 -2.87972 14.9423
448 1 -1.1104 9.41581 2.63125 15.0769
450 2 2.2208 7.84957 -1.52699 16.377
451 2 2.2208 7.88503 4.12867 16.5502
452 1 -1.1104 9.23077 -0.0756877 17.8561
453 1 -1.1104 9.279 -0.125408 15.0889
447 1 -1.1104 9.36187 -2.84796 20.7246
437 1 -1.1104 12.1625 2.63624 20.7116
449 1 -1.1104 9.37236 2.64816 20.7499
442 1 -1.1104 12.043 -0.105834 20.6494
454 1 -1.1104 9.29977 -0.0212133 20.6459
9129 2 2.2208 10.7093 -4.24809 16.4307
371 2 2.2208 -0.431733 18.0973 27.731
9089 2 2.2208 7.94476 -4.30591 24.9811
429 2 2.2208 13.5462 4.1071 16.4573
9090 2 2.2208 10.7339 -4.24253 22.0921
375 2 2.2208 2.59282 20.8809 27.7759
9128 2 2.2208 7.95199 -4.27109 19.3147
464 2 2.2208 5.1058 6.79096 16.4931
465 2 2.2208 5.14349 12.2647 16.5859
466 1 -1.1104 0.865218 8.19184 17.742
468 1 -1.1104 1.00156 8.27946 15.0396
472 1 -1.1104 1.03891 5.29026 17.9648
473 1 -1.1104 0.811417 10.9479 17.8864
476 2 2.2208 5.01734 9.66666 19.3505
477 1 -1.1104 0.872065 5.34273 15.1048
479 1 -1.1104 0.977281 11.027 15.228
485 1 -1.1104 3.71902 8.3123 18.0162
486 2 2.2208 2.31648 6.94611 19.4047
487 2 2.2208 2.34733 12.5199 19.2683
488 1 -1.1104 3.7357 8.01484 15.0994
490 2 2.2208 2.32456 9.52911 16.4965
491 1 -1.1104 3.72162 5.52621 17.9809
492 1 -1.1104 3.56894 11.0913 17.964
493 1 -1.1104 3.71027 5.29832 15.0474
495 1 -1.1104 3.74492 10.9472 15.1502
489 1 -1.1104 3.72018 8.36317 20.8195
467 1 -1.1104 6.60774 8.15914 17.9363
475 1 -1.1104 6.48201 10.8898 17.8555
480 1 -1.1104 1.0079 11.0843 20.6106
483 1 -1.1104 6.62117 11.097 15.1426
482 1 -1.1104 6.49091 5.52446 20.6442
478 1 -1.1104 0.829648 5.49111 20.7419
469 1 -1.1104 0.962887 8.30308 20.7489
481 1 -1.1104 6.63061 5.57525 15.0507
484 1 -1.1104 6.52628 11.1143 20.6661
471 1 -1.1104 6.55595 8.38028 20.7909
474 1 -1.1104 6.55049 5.50057 17.8227
470 1 -1.1104 6.4223 8.28007 15.1091
651 2 2.2208 13.5224 6.79376 19.3367
9158 2 2.2208 2.34455 -4.39762 19.3207
500 2 2.2208 10.8009 7.15391 16.5267
501 2 2.2208 10.7476 12.6042 16.6074
502 1 -1.1104 12.0337 8.33766 17.9482
503 1 -1.1104 12.3087 8.41964 15.222
505 1 -1.1104 12.2137 5.57049 17.8462
506 1 -1.1104 12.1497 11.0021 18.0712
507 2 2.2208 10.7029 9.74695 19.3988
508 1 -1.1104 12.1969 5.5316 15.0231
510 1 -1.1104 12.1638 11.2096 15.2013
512 1 -1.1104 9.32213 8.32518 18.038
513 2 2.2208 7.91999 6.8357 19.3787
514 2 2.2208 8.03112 12.5039 19.304
515 1 -1.1104 9.20145 8.40106 15.2235
517 2 2.2208 7.78065 9.55548 16.6286
518 1 -1.1104 9.36178 5.47307 18.1292
519 1 -1.1104 9.21388 11.2398 17.9161
520 1 -1.1104 9.38798 5.52259 15.2758
522 1 -1.1104 9.34044 11.1576 15.2862
516 1 -1.1104 9.43304 8.23466 20.7103
504 1 -1.1104 12.2845 8.28894 20.7067
509 1 -1.1104 12.1167 5.43452 20.7834
511 1 -1.1104 12.011 11.2267 20.8735
521 1 -1.1104 9.36504 5.51268 20.8156
9091 2 2.2208 13.5633 -4.33538 25.0271
527 2 2.2208 5.18145 18.0571 16.5658
528 1 -1.1104 0.93811 13.9427 17.9159
529 1 -1.1104 0.847217 19.5112 17.9073
532 1 -1.1104 1.00327 13.761 15.0981
534 1 -1.1104 0.928331 19.4842 15.1378
540 1 -1.1104 0.936675 16.6577 17.8796
542 2 2.2208 5.15912 15.1691 19.3704
543 2 2.2208 5.15404 20.8726 19.3123
544 1 -1.1104 1.10746 16.6605 15.0308
548 1 -1.1104 3.75048 13.7521 18.0157
549 1 -1.1104 3.7284 19.4685 17.9164
550 2 2.2208 2.31786 18.0599 19.2426
551 1 -1.1104 3.83512 13.7239 15.173
553 1 -1.1104 3.79471 19.6743 15.0539
555 2 2.2208 2.41277 15.199 16.4456
556 2 2.2208 2.50649 20.8975 16.4565
557 1 -1.1104 3.77825 16.5646 17.8153
558 1 -1.1104 3.83077 16.7157 15.0616
559 1 -1.1104 3.85202 16.7809 20.5925
552 1 -1.1104 3.82346 13.9633 20.7926
536 1 -1.1104 6.52472 13.9357 15.081
531 1 -1.1104 6.56777 19.4846 17.9841
541 1 -1.1104 6.55928 16.628 17.9484
537 1 -1.1104 6.63957 13.7943 20.6275
533 1 -1.1104 1.0919 13.8853 20.7602
535 1 -1.1104 1.0621 19.4792 20.8115
530 1 -1.1104 6.52725 13.7011 17.9183
538 1 -1.1104 6.54591 19.4861 15.2482
539 1 -1.1104 6.65545 19.6104 20.7826
546 1 -1.1104 6.68253 16.5923 14.9441
554 1 -1.1104 3.66631 19.5047 20.5965
545 1 -1.1104 1.17047 16.7077 20.8158
547 1 -1.1104 6.61401 16.7176 20.6078
563 2 2.2208 10.8732 18.0637 16.4982
564 1 -1.1104 12.2932 13.9208 17.8532
565 1 -1.1104 12.2953 19.4515 17.9718
566 1 -1.1104 11.9883 13.8134 15.0355
568 1 -1.1104 12.1235 19.505 15.145
570 1 -1.1104 12.1131 16.7966 18.0833
571 2 2.2208 10.788 15.3275 19.3406
572 2 2.2208 10.8476 20.8803 19.354
573 1 -1.1104 12.4036 16.6266 15.0937
575 1 -1.1104 9.37963 13.8789 17.9989
576 1 -1.1104 9.45116 19.4626 17.7271
577 2 2.2208 7.9638 18.0992 19.3206
578 1 -1.1104 9.25344 13.9068 15.1515
580 1 -1.1104 9.37375 19.4056 15.0095
582 2 2.2208 7.90257 15.2766 16.5351
583 2 2.2208 7.94598 20.8302 16.4502
584 1 -1.1104 9.31472 16.6867 17.937
585 1 -1.1104 9.60076 16.6513 15.2815
586 1 -1.1104 9.60525 16.6333 20.734
569 1 -1.1104 12.2255 19.5985 20.7755
574 1 -1.1104 12.3482 16.7477 20.8556
567 1 -1.1104 12.0701 13.9012 20.6734
581 1 -1.1104 9.38423 19.4527 20.5864
579 1 -1.1104 9.42664 13.9231 20.9058
619 2 2.2208 13.6589 15.3338 16.5461
460 2 2.2208 13.6201 20.9136 16.5244
618 2 2.2208 13.7023 18.1747 19.351
408 1 -1.1104 6.37239 -0.0156824 20.7409
591 2 2.2208 5.08329 1.26689 22.2129
592 1 -1.1104 0.789001 -2.99535 23.6711
593 1 -1.1104 0.83778 2.61814 23.6138
596 1 -1.1104 0.844485 -2.91364 26.4902
597 1 -1.1104 0.894366 2.68344 26.3694
600 1 -1.1104 0.839304 -0.135326 23.5307
602 2 2.2208 5.14504 -1.55774 24.8653
603 2 2.2208 5.20976 4.06901 24.7765
604 1 -1.1104 0.869282 -0.220582 26.3009
606 1 -1.1104 3.63267 -3.01651 23.6402
607 1 -1.1104 3.55374 2.69935 23.4748
608 2 2.2208 2.40107 1.30674 25.0204
609 1 -1.1104 3.91636 -2.92824 26.4178
610 1 -1.1104 3.90948 2.72698 26.1595
611 2 2.2208 2.23067 -1.57485 22.1722
612 2 2.2208 2.17045 4.0282 22.077
613 1 -1.1104 3.68353 -0.181052 23.7314
614 1 -1.1104 3.6216 -0.109142 26.4653
598 1 -1.1104 6.6253 -2.88086 26.3288
9093 2 2.2208 5.16122 -4.37155 22.1614
428 2 2.2208 13.5496 1.3682 19.248
356 2 2.2208 7.90263 12.6269 13.7018
595 1 -1.1104 6.50914 2.76541 23.3956
605 1 -1.1104 6.53102 -0.0192926 26.4356
601 1 -1.1104 6.50136 -0.08247 23.5752
435 1 -1.1104 12.096 -2.99242 20.7694
653 2 2.2208 13.6269 -1.4646 22.2225
599 1 -1.1104 6.69566 2.57157 26.2675
594 1 -1.1104 6.46967 -2.82143 23.5691
378 2 2.2208 13.5271 4.15012 27.626
426 2 2.2208 13.6985 9.60923 16.7138
627 2 2.2208 10.7971 1.28722 22.0505
628 1 -1.1104 11.9962 -2.89088 23.5516
629 1 -1.1104 12.1777 2.94004 23.4254
630 1 -1.1104 12.0803 -2.88908 26.2982
631 1 -1.1104 12.1388 2.75371 26.3165
632 1 -1.1104 12.1457 0.00621526 23.4221
633 2 2.2208 10.6306 -1.50983 24.8543
634 2 2.2208 10.777 4.13961 24.8345
635 1 -1.1104 12.0703 -0.119031 26.1135
636 1 -1.1104 9.15467 -2.94878 23.5847
637 1 -1.1104 9.48161 2.78591 23.463
638 2 2.2208 8.07647 1.40805 24.8007
639 1 -1.1104 9.25163 -2.84276 26.3368
640 1 -1.1104 9.34688 2.75637 26.2131
641 2 2.2208 7.86321 -1.51318 22.2105
642 2 2.2208 7.96755 4.25689 22.1915
643 1 -1.1104 9.30577 -0.171585 23.4209
644 1 -1.1104 9.27619 0.0865956 26.2195
654 2 2.2208 13.5679 1.29933 24.8632
423 2 2.2208 13.5983 4.10481 22.1629
455 2 2.2208 13.5898 18.2046 24.9097
459 2 2.2208 13.5273 -1.43457 16.4999
620 1 -1.1104 9.11019 16.7691 26.4076
496 1 -1.1104 3.68343 11.18 20.7341
494 1 -1.1104 3.80785 5.65604 20.8022
430 2 2.2208 13.6915 15.282 22.1819
526 2 2.2208 10.9655 21.0005 24.9714
656 2 2.2208 5.15822 6.98922 22.1427
657 2 2.2208 5.19104 12.4189 22.0963
658 1 -1.1104 1.00513 8.14646 23.5759
660 1 -1.1104 1.04715 8.2825 26.2457
662 1 -1.1104 0.783375 5.26747 23.6222
663 1 -1.1104 0.900364 10.8954 23.523
666 2 2.2208 5.14247 9.75136 24.9099
667 1 -1.1104 1.02438 5.48404 26.376
668 1 -1.1104 1.04907 11.1562 26.2614
671 1 -1.1104 3.81653 8.34773 23.6602
672 2 2.2208 2.47206 6.81226 24.98
673 2 2.2208 2.30064 12.4267 24.9507
674 1 -1.1104 3.87981 8.10189 26.2694
675 2 2.2208 2.39722 9.6908 22.1971
676 1 -1.1104 3.7108 5.60502 23.5025
677 1 -1.1104 3.68748 11.0707 23.5251
678 1 -1.1104 3.88315 5.4729 26.2582
679 1 -1.1104 3.74026 11.1082 26.3877
665 1 -1.1104 6.52089 11.0583 23.5203
670 1 -1.1104 6.60246 11.0175 26.33
659 1 -1.1104 6.44992 8.43136 23.564
661 1 -1.1104 6.6471 8.18992 26.4191
664 1 -1.1104 6.69414 5.71239 23.369
669 1 -1.1104 6.54976 5.38281 26.1525
523 1 -1.1104 9.22948 11.091 20.8598
616 2 2.2208 8.02559 20.9138 22.1818
422 2 2.2208 13.4848 9.79992 22.1464
462 2 2.2208 10.828 18.0598 22.2435
365 2 2.2208 2.32677 -1.54709 27.8331
687 1 -1.1104 9.58828 11.1566 26.2793
688 1 -1.1104 9.3372 5.64481 26.3644
689 1 -1.1104 9.3611 11.1036 23.5629
690 1 -1.1104 9.27565 5.53554 23.7291
691 2 2.2208 7.92407 9.75034 22.1903
692 1 -1.1104 9.47516 8.4431 26.4373
693 2 2.2208 7.93415 12.5157 25.0071
694 2 2.2208 7.94106 6.92945 24.9303
695 2 2.2208 10.7822 6.93216 22.1087
696 2 2.2208 10.7196 12.5123 22.0825
697 1 -1.1104 12.2493 8.46216 23.5615
698 1 -1.1104 12.2275 8.21446 26.34
699 1 -1.1104 12.2631 5.70437 23.3487
700 1 -1.1104 12.1359 11.3234 23.6838
701 2 2.2208 10.8396 9.65877 24.9389
702 1 -1.1104 11.9925 5.54449 26.2533
703 1 -1.1104 12.3669 11.0818 26.319
704 1 -1.1104 9.426 8.30059 23.7219
362 2 2.2208 8.1013 18.1173 13.7521
708 2 2.2208 13.7376 12.5447 24.8929
9092 2 2.2208 2.3797 -4.2967 24.9373
498 1 -1.1104 12.3286 13.9783 26.2958
709 1 -1.1104 6.54494 13.9631 23.5856
588 1 -1.1104 6.62087 19.4575 26.3288
714 1 -1.1104 6.46344 16.6046 26.2636
720 2 2.2208 5.08205 15.2229 24.8794
647 2 2.2208 2.44282 15.1706 22.1265
649 2 2.2208 2.36308 20.8731 22.1367
652 1 -1.1104 3.76509 16.6759 23.4904
655 1 -1.1104 0.950538 16.7617 23.557
681 1 -1.1104 3.89263 13.7931 26.3453
682 1 -1.1104 3.70967 16.6381 26.3451
683 2 2.2208 2.4091 18.0716 25.0118
686 1 -1.1104 3.93612 19.3535 26.256
705 2 2.2208 5.09436 18.1413 22.0447
706 1 -1.1104 1.03239 13.8118 23.6336
707 1 -1.1104 1.12633 19.6241 23.6428
711 1 -1.1104 3.85887 19.3905 23.5152
713 1 -1.1104 3.72281 13.8846 23.4898
715 1 -1.1104 1.15461 19.53 26.3118
716 1 -1.1104 0.948545 16.7207 26.3931
717 1 -1.1104 0.980614 13.8674 26.337
719 2 2.2208 5.21852 20.9257 24.8826
589 1 -1.1104 9.47078 13.9461 26.3904
680 1 -1.1104 6.43257 16.7333 23.3498
712 1 -1.1104 6.61326 13.8448 26.4202
718 1 -1.1104 6.57011 19.5384 23.555
9016 2 2.2208 8.02534 -4.37153 13.6223
590 1 -1.1104 9.44506 19.4505 26.3033
615 2 2.2208 8.03713 15.3006 22.1884
497 1 -1.1104 12.2494 19.5128 23.5907
463 1 -1.1104 12.1666 13.9521 23.4573
562 1 -1.1104 9.43741 19.5088 23.3368
646 2 2.2208 -0.47085 15.2732 24.8746
525 2 2.2208 10.8733 15.2882 24.9332
461 2 2.2208 13.6723 20.9839 22.1768
560 1 -1.1104 12.1398 16.7305 26.2558
499 1 -1.1104 12.225 19.5088 26.3215
561 1 -1.1104 9.31317 13.8247 23.5963
524 1 -1.1104 12.3502 16.801 23.579
617 1 -1.1104 9.38262 16.6462 23.7403
587 2 2.2208 7.90811 18.0965 24.8941
370 2 2.2208 7.83248 -1.4744 27.6761
354 2 2.2208 7.90107 6.84821 13.5539
9012 2 2.2208 5.08335 -4.43488 27.7931
348 2 2.2208 10.6675 18.0725 27.8699
381 2 2.2208 5.15314 12.402 27.7926
338 2 2.2208 5.19592 -1.63632 13.5123
380 2 2.2208 2.27916 9.6923 27.7596
374 2 2.2208 5.16444 18.0533 27.7873
358 2 2.2208 5.23527 20.9584 13.5442
372 2 2.2208 7.96129 4.10356 27.7039
336 2 2.2208 13.6218 7.06698 13.7265
359 2 2.2208 5.25633 15.1997 13.6465
352 2 2.2208 5.21816 9.66857 13.6106
361 2 2.2208 10.8003 15.2643 13.6531
721 2 2.2208 5.19195 23.6828 5.24717
722 2 2.2208 5.23482 29.3514 5.17783
723 1 -1.1104 0.990676 25.252 1.00548
724 1 -1.1104 0.83332 25.1475 3.69082
725 1 -1.1104 1.07772 22.2941 0.920678
726 1 -1.1104 1.12367 27.9064 0.963086
727 2 2.2208 5.27003 26.611 2.32272
728 1 -1.1104 1.20117 22.2041 3.95696
729 1 -1.1104 1.05945 27.877 3.66188
730 1 -1.1104 3.79529 25.273 1.10918
731 2 2.2208 2.50472 23.6838 2.4813
732 2 2.2208 2.37134 29.3006 2.4697
733 1 -1.1104 3.80751 25.1754 3.75144
734 2 2.2208 2.43576 26.5123 5.19552
735 1 -1.1104 3.85333 22.4092 1.18387
736 1 -1.1104 3.85304 27.8894 0.932105
737 1 -1.1104 3.92691 22.3099 3.96171
738 1 -1.1104 3.93957 27.8643 3.78542
864 1 -1.1104 1.08686 22.3877 6.66255
865 1 -1.1104 0.983277 27.9516 6.52948
869 1 -1.1104 3.84955 22.3056 6.84638
862 1 -1.1104 1.12843 25.2417 6.68796
746 1 -1.1104 6.54311 22.1364 3.84667
744 1 -1.1104 6.54561 22.2198 1.01539
745 1 -1.1104 6.54771 27.9305 0.940626
867 1 -1.1104 6.52082 27.8322 6.69284
870 1 -1.1104 3.76692 27.9863 6.58272
742 1 -1.1104 6.69632 25.0667 0.984713
743 1 -1.1104 6.64178 25.1092 3.80946
863 1 -1.1104 6.63945 25.1281 6.46465
866 1 -1.1104 6.64548 22.3316 6.65399
1082 2 2.2208 -0.374586 34.8508 -0.49116
747 1 -1.1104 6.68139 27.9079 3.88235
748 2 2.2208 10.7717 23.6684 5.2286
749 2 2.2208 10.7486 29.391 5.21106
750 1 -1.1104 12.2765 25.0802 1.22179
751 1 -1.1104 12.2195 25.1218 3.91974
752 1 -1.1104 12.3274 22.276 1.04736
753 1 -1.1104 12.2749 27.9041 0.928687
754 2 2.2208 10.8667 26.4666 2.49347
755 1 -1.1104 12.1612 22.25 3.91026
756 1 -1.1104 12.2971 27.9941 3.74873
757 1 -1.1104 9.41977 25.1158 0.944472
758 2 2.2208 8.08331 23.7586 2.3458
759 2 2.2208 8.06168 29.4555 2.41387
760 1 -1.1104 9.38771 25.1002 3.80943
761 2 2.2208 7.96966 26.4472 5.1642
762 1 -1.1104 9.25836 22.2066 1.09286
763 1 -1.1104 9.3633 27.9644 0.925266
764 1 -1.1104 9.42673 22.3274 3.85165
765 1 -1.1104 9.54075 28.0862 3.62542
897 1 -1.1104 12.225 27.8767 6.52795
899 1 -1.1104 9.41835 22.2475 6.57611
898 1 -1.1104 9.52856 25.1613 6.75867
895 1 -1.1104 12.2734 25.0949 6.69861
766 2 2.2208 13.7176 23.6462 2.47348
896 1 -1.1104 12.261 22.2198 6.68461
841 2 2.2208 -0.330941 43.3206 2.48295
900 1 -1.1104 9.37325 27.8341 6.48521
769 2 2.2208 5.29301 34.896 5.1328
770 1 -1.1104 1.01578 30.7539 1.04863
771 1 -1.1104 0.885868 36.2101 0.929613
773 1 -1.1104 1.18289 30.8161 3.89547
774 1 -1.1104 0.988595 36.4483 3.86827
776 1 -1.1104 0.951018 33.5959 0.859745
777 2 2.2208 5.20117 32.0943 2.29711
778 2 2.2208 5.33191 37.7496 2.34196
779 1 -1.1104 1.02222 33.5703 3.74398
781 1 -1.1104 3.94605 30.7278 0.809682
782 1 -1.1104 3.93551 36.3202 0.929269
783 2 2.2208 2.33971 34.9419 2.36067
784 1 -1.1104 3.90175 30.7671 3.77821
785 1 -1.1104 3.87633 36.3642 3.69807
786 2 2.2208 2.39469 32.2056 5.22217
787 2 2.2208 2.50215 37.7895 5.13653
788 1 -1.1104 3.7412 33.5207 1.08722
789 1 -1.1104 3.91642 33.5465 3.86069
925 1 -1.1104 3.91305 30.8491 6.66927
926 1 -1.1104 3.94298 36.3086 6.54983
927 1 -1.1104 3.84856 33.5615 6.53649
921 1 -1.1104 6.65563 30.7198 6.6022
795 1 -1.1104 6.78285 33.4998 0.888436
780 1 -1.1104 6.60587 33.5266 3.6247
793 1 -1.1104 6.66008 30.6917 0.846663
794 1 -1.1104 6.59894 30.7761 3.75058
772 1 -1.1104 6.79461 36.3205 1.13197
920 1 -1.1104 1.21772 36.426 6.59359
919 1 -1.1104 1.07396 30.7733 6.58248
775 1 -1.1104 6.75333 36.2706 3.76296
924 1 -1.1104 6.72834 33.4984 6.51031
1057 2 2.2208 -0.228093 37.8714 13.6253
1040 2 2.2208 -0.479987 35.0469 10.8051
796 2 2.2208 10.8547 35.0125 5.21103
797 1 -1.1104 12.397 30.7813 1.10013
798 1 -1.1104 12.2845 36.4715 1.09382
799 1 -1.1104 12.3437 30.9668 3.81094