ITEM: TIMESTEP
60000
ITEM: NUMBER OF ATOMS
17670
ITEM: BOX BOUNDS pp pp pp
-3.5716308844731237e-01 2.7697163088447574e+01
-4.1924780079922659e+00 3.3227247800799012e+02
-3.5860537714790319e-01 2.7698605377147228e+01
ITEM: ATOMS id type q x y z
1 2 2.2208 5.14415 1.54783 5.37983
2 1 -1.1104 1.1256 -2.78756 1.12554
3 1 -1.1104 1.06924 2.78488 1.21332
6 1 -1.1104 0.984418 -2.80572 3.97784
7 1 -1.1104 1.14427 2.76344 3.86996
10 1 -1.1104 0.948572 -0.0171625 1.02618
12 2 2.2208 5.11308 -1.29141 2.46436
13 2 2.2208 5.21899 4.10027 2.54293
14 1 -1.1104 0.991923 -0.0604462 3.88445
16 1 -1.1104 3.88586 -2.779 1.00683
17 1 -1.1104 3.79643 2.74209 1.18897
18 2 2.2208 2.4121 1.28013 2.49679
19 1 -1.1104 3.88271 -2.7441 3.8323
20 1 -1.1104 3.95174 2.85564 3.90409
21 2 2.2208 2.45409 -1.29974 5.1912
22 2 2.2208 2.38007 4.24729 5.36944
23 1 -1.1104 3.85334 -0.01767 1.05829
24 1 -1.1104 3.77631 0.122231 4.00715
360 2 2.2208 10.9169 21.0949 13.5246
365 2 2.2208 2.45055 -1.40953 -0.312827
9 1 -1.1104 6.65478 2.85447 3.80607
9000 2 2.2208 5.18851 -4.22872 11.0014
369 2 2.2208 10.8682 1.357 -0.291567
5 1 -1.1104 6.53971 2.94952 0.928728
4 1 -1.1104 6.63845 -2.53058 1.2892
15 1 -1.1104 6.58164 0.0181965 3.9307
8 1 -1.1104 6.62798 -2.71166 3.98163
166 1 -1.1104 1.06599 -2.89111 6.75469
386 2 2.2208 10.7962 12.6225 -0.253278
9002 2 2.2208 8.09515 -4.12499 8.12821
11 1 -1.1104 6.67132 0.12866 1.21345
370 2 2.2208 8.15594 -1.32052 -0.236388
8996 2 2.2208 8.05928 -4.09572 2.45639
31 2 2.2208 10.9967 1.40528 5.25898
32 1 -1.1104 12.1564 -2.86857 1.11615
33 1 -1.1104 12.2995 2.7327 1.04795
34 1 -1.1104 12.3803 -2.79377 3.96222
35 1 -1.1104 12.345 2.83953 3.81787
36 1 -1.1104 12.3723 -0.0544329 1.04034
37 2 2.2208 10.889 -1.43935 2.60292
39 1 -1.1104 12.3826 0.00789446 3.85815
40 1 -1.1104 9.48487 -2.80219 1.0517
41 1 -1.1104 9.38597 2.91473 1.13188
42 2 2.2208 8.07213 1.44882 2.60446
43 1 -1.1104 9.52608 -2.757 3.87388
44 1 -1.1104 9.61462 2.92121 3.85052
45 2 2.2208 7.97262 -1.27296 5.2904
46 2 2.2208 8.05341 4.19033 5.26479
47 1 -1.1104 9.58761 0.00859616 1.24062
48 1 -1.1104 9.4978 0.0120903 4.02618
38 2 2.2208 10.885 4.28563 2.57076
8994 2 2.2208 5.3245 -4.1156 5.38764
205 1 -1.1104 12.2121 -2.68661 6.6037
372 2 2.2208 8.00933 4.18558 -0.268267
51 2 2.2208 -0.286627 12.6887 10.9262
8993 2 2.2208 2.4976 -4.12949 2.5933
210 1 -1.1104 9.67389 0.11035 6.80759
206 1 -1.1104 12.2544 2.68861 6.83411
381 2 2.2208 5.2752 12.6281 -0.292551
9012 2 2.2208 5.22467 -4.1367 -0.278809
54 2 2.2208 5.25137 6.98173 5.44279
55 2 2.2208 5.30474 12.6333 5.38012
56 1 -1.1104 0.891953 8.336 1.14127
58 1 -1.1104 0.948648 8.40763 4.04767
60 1 -1.1104 0.908225 5.55785 1.11346
61 1 -1.1104 1.1062 11.1289 1.10576
66 2 2.2208 5.28442 9.73267 2.60998
67 1 -1.1104 0.871364 5.54928 4.03958
68 1 -1.1104 1.03587 11.3633 3.99626
71 1 -1.1104 3.74917 8.47538 1.29687
72 2 2.2208 2.32454 6.91883 2.52697
73 2 2.2208 2.53007 12.5342 2.65224
74 1 -1.1104 3.77982 8.367 3.98806
75 2 2.2208 2.33692 9.79163 5.34586
76 1 -1.1104 3.74635 5.73723 0.958238
77 1 -1.1104 3.93218 11.1789 1.18495
79 1 -1.1104 3.86902 5.60874 3.83949
80 1 -1.1104 3.89648 10.9648 3.99607
63 1 -1.1104 6.44756 5.76156 1.23138
70 1 -1.1104 6.75574 11.164 3.84921
78 1 -1.1104 3.82875 11.3555 6.82836
69 1 -1.1104 6.41544 5.52735 3.99602
59 1 -1.1104 6.63092 8.34204 3.9581
57 1 -1.1104 6.54742 8.42589 1.13386
64 1 -1.1104 6.69515 11.2109 1.13663
379 2 2.2208 5.12219 7.08387 -0.324193
236 1 -1.1104 1.01939 5.52088 6.78657
235 1 -1.1104 6.61585 8.39104 6.94247
84 2 2.2208 10.7428 6.95366 5.29098
85 2 2.2208 10.8504 12.5456 5.10391
86 1 -1.1104 12.3671 8.39053 0.971714
87 1 -1.1104 12.2257 8.44061 3.73288
88 1 -1.1104 12.2544 5.67384 1.15946
89 1 -1.1104 12.1741 11.1911 0.997404
91 2 2.2208 10.8378 9.77111 2.49766
92 1 -1.1104 12.1634 5.61051 3.8625
93 1 -1.1104 12.2097 11.171 3.75761
94 1 -1.1104 9.5859 8.33209 1.30171
95 2 2.2208 7.96638 6.95866 2.50765
96 2 2.2208 8.11876 12.6523 2.51189
97 1 -1.1104 9.45664 8.26425 4.13293
98 2 2.2208 7.93295 9.74221 5.36646
99 1 -1.1104 9.37544 5.60641 1.15813
100 1 -1.1104 9.43674 11.2025 1.05537
102 1 -1.1104 9.36652 5.56142 3.87438
103 1 -1.1104 9.41615 11.1425 3.79082
8999 2 2.2208 2.54752 -4.24469 8.13178
101 1 -1.1104 9.36322 11.199 6.64154
265 1 -1.1104 12.2023 8.31252 6.44312
267 1 -1.1104 9.50854 8.44576 6.85672
266 1 -1.1104 12.1903 5.70962 6.6664
366 2 2.2208 2.51561 4.18089 -0.254599
364 2 2.2208 5.37029 1.42782 -0.295263
384 2 2.2208 10.7946 7.04748 -0.302412
111 1 -1.1104 6.59694 14.1498 6.83138
30 2 2.2208 -0.335078 9.72134 8.18368
112 1 -1.1104 6.59952 19.5233 6.7918
106 2 2.2208 5.27265 18.179 5.29404
107 1 -1.1104 1.0899 14.0281 1.1928
109 1 -1.1104 1.1198 19.6867 1.05875
113 1 -1.1104 1.04762 14.0856 4.04085
114 1 -1.1104 1.01953 19.5701 4.089
116 1 -1.1104 0.888174 16.9222 1.09549
119 2 2.2208 5.1496 15.3884 2.6556
120 2 2.2208 5.21437 20.9641 2.47832
121 1 -1.1104 1.06326 16.7735 4.01086
123 1 -1.1104 3.80641 14.0088 1.24814
125 1 -1.1104 3.91225 19.6069 1.05331
127 2 2.2208 2.37389 18.2591 2.53874
128 1 -1.1104 3.81874 13.8686 4.0437
129 1 -1.1104 3.78943 19.7332 3.80332
130 2 2.2208 2.44068 15.2932 5.44245
131 2 2.2208 2.36969 21.0086 5.28401
132 1 -1.1104 3.70375 16.7579 1.11871
134 1 -1.1104 3.7046 16.7229 3.89842
374 2 2.2208 5.12759 18.1106 -0.33423
140 1 -1.1104 6.4837 16.7466 1.17705
138 1 -1.1104 6.68341 19.5111 0.983489
122 1 -1.1104 6.68503 16.7486 3.93672
115 1 -1.1104 6.48902 14.0594 3.95769
302 1 -1.1104 0.913138 19.5661 6.75387
133 1 -1.1104 3.93038 16.7656 6.75145
108 1 -1.1104 0.933008 13.8692 6.64021
346 2 2.2208 10.8631 -1.42443 13.6437
145 1 -1.1104 12.188 19.493 6.56554
347 2 2.2208 8.08253 15.4439 -0.258206
143 1 -1.1104 12.1529 13.9931 6.43885
110 1 -1.1104 6.64188 13.9344 1.15967
139 1 -1.1104 6.67966 19.7242 3.95616
141 2 2.2208 10.7981 18.0897 5.26887
142 1 -1.1104 12.146 13.9174 1.17815
144 1 -1.1104 12.4057 19.558 0.99207
146 1 -1.1104 12.2945 13.8426 3.81445
147 1 -1.1104 12.2466 19.5764 3.72925
148 1 -1.1104 12.1922 16.6392 0.932262
150 2 2.2208 10.8727 15.3315 2.57408
151 2 2.2208 10.7555 21.048 2.41049
152 1 -1.1104 12.2398 16.7847 3.80513
153 1 -1.1104 9.46263 14.1199 1.16572
155 1 -1.1104 9.41992 19.5895 1.25524
157 2 2.2208 8.00504 18.176 2.61973
158 1 -1.1104 9.42118 13.9061 3.92696
159 1 -1.1104 9.54213 19.5862 4.05158
160 2 2.2208 8.07292 15.3313 5.3431
161 2 2.2208 8.15993 21.1736 5.37691
162 1 -1.1104 9.25912 16.9041 1.07604
164 1 -1.1104 9.52631 16.7757 3.79281
316 2 2.2208 8.0214 21.0212 10.7773
203 2 2.2208 13.6715 4.25626 10.8644
149 1 -1.1104 12.378 16.7203 6.60166
156 1 -1.1104 9.32873 19.4978 6.6604
325 2 2.2208 10.8542 15.4537 7.96641
8997 2 2.2208 10.8837 -4.19324 5.2261
167 1 -1.1104 1.01032 2.53287 6.71153
169 1 -1.1104 6.65006 2.79672 6.71059
328 1 -1.1104 12.1266 14.0114 9.51576
232 2 2.2208 13.5717 9.77702 5.33156
326 1 -1.1104 12.1756 16.9766 12.1885
174 1 -1.1104 3.88664 0.0443043 6.77705
170 1 -1.1104 1.02684 -0.150597 6.59953
173 1 -1.1104 3.72252 2.92329 6.69605
172 1 -1.1104 3.88435 -2.87062 6.77367
175 2 2.2208 5.32202 1.43022 10.8624
176 1 -1.1104 1.07601 -2.88015 12.2522
177 1 -1.1104 1.06886 2.77824 12.2556
180 1 -1.1104 0.9295 -2.90457 9.55762
181 1 -1.1104 1.15648 2.76652 9.42894
184 1 -1.1104 0.95562 0.07912 12.1914
186 2 2.2208 5.20393 -1.39832 8.17881
187 2 2.2208 5.29217 4.27312 8.16667
188 1 -1.1104 1.04992 -0.0035034 9.44025
190 1 -1.1104 3.90017 -2.68114 12.2283
191 1 -1.1104 3.96477 2.84225 12.2936
192 2 2.2208 2.52422 1.40994 8.04469
193 1 -1.1104 3.70869 -2.76611 9.45214
194 1 -1.1104 3.96751 2.88684 9.53809
195 2 2.2208 2.45392 -1.34592 10.8625
196 2 2.2208 2.55995 4.2 10.8834
197 1 -1.1104 3.8157 0.0249805 12.4008
198 1 -1.1104 3.92728 0.166965 9.5885
185 1 -1.1104 6.70141 0.124816 12.2762
168 1 -1.1104 6.63106 -2.73423 6.73642
104 2 2.2208 13.6264 12.6137 2.36699
373 2 2.2208 2.4757 15.383 -0.247879
323 1 -1.1104 12.2369 16.8532 9.28832
330 1 -1.1104 12.2934 13.9547 12.3306
183 1 -1.1104 6.86305 2.801 9.55601
171 1 -1.1104 6.6774 0.107338 6.74577
182 1 -1.1104 6.5319 -2.82268 9.68213
189 1 -1.1104 6.63322 -0.037229 9.51091
179 1 -1.1104 6.65936 2.95701 12.2222
208 1 -1.1104 9.46371 -2.77517 6.80611
207 1 -1.1104 12.2825 0.0799178 6.70325
209 1 -1.1104 9.38524 2.76119 6.61441
178 1 -1.1104 6.60237 -2.87098 12.4405
211 2 2.2208 10.9662 1.47404 10.8073
212 1 -1.1104 12.1886 -2.78788 12.2298
213 1 -1.1104 12.1615 2.88473 12.2294
214 1 -1.1104 12.1455 -2.81421 9.52889
215 1 -1.1104 12.4211 2.977 9.60146
216 1 -1.1104 12.244 -0.0592159 12.2222
217 2 2.2208 10.8788 -1.42537 8.073
219 1 -1.1104 12.3351 -0.01505 9.48691
220 1 -1.1104 9.42784 -2.86305 12.3644
221 1 -1.1104 9.44521 2.84827 12.2153
222 2 2.2208 8.07748 1.54417 8.09893
223 1 -1.1104 9.3324 -2.7496 9.54307
224 1 -1.1104 9.5739 2.84955 9.60186
225 2 2.2208 7.99738 -1.49824 10.8554
226 2 2.2208 8.02012 4.33148 11.0275
227 1 -1.1104 9.50893 -0.0359801 12.4012
228 1 -1.1104 9.41634 -0.0120976 9.67841
234 1 -1.1104 1.14762 8.38296 6.78503
238 1 -1.1104 3.93948 8.51254 6.80394
239 1 -1.1104 3.88843 5.67982 6.76061
62 1 -1.1104 1.09975 11.1483 6.77772
240 2 2.2208 5.34182 7.07517 11.0144
241 2 2.2208 5.18944 12.6166 10.9376
242 1 -1.1104 1.00668 8.33305 12.2475
244 1 -1.1104 1.07398 8.36052 9.40031
246 1 -1.1104 1.21843 5.52094 12.2917
247 1 -1.1104 1.11018 11.1998 12.2865
250 2 2.2208 5.2196 9.93128 8.0543
251 1 -1.1104 1.31186 5.52625 9.50108
252 1 -1.1104 1.08926 11.2521 9.6281
255 1 -1.1104 3.89306 8.51735 12.4225
256 2 2.2208 2.62494 7.11775 8.11285
257 2 2.2208 2.46585 12.6827 8.31208
258 1 -1.1104 3.74428 8.65472 9.55318
259 2 2.2208 2.41405 9.80039 10.9152
260 1 -1.1104 3.93125 5.72273 12.2827
261 1 -1.1104 4.0376 11.2825 12.4181
262 1 -1.1104 4.06111 5.6595 9.50088
263 1 -1.1104 3.82177 11.2963 9.66678
253 1 -1.1104 6.69703 5.60675 9.65505
237 1 -1.1104 6.58729 5.58837 6.90081
65 1 -1.1104 6.49208 11.2186 6.53898
243 1 -1.1104 6.73444 8.3038 12.3547
322 1 -1.1104 9.57625 14.166 12.3484
331 2 2.2208 10.8466 18.2207 10.7716
380 2 2.2208 2.47976 9.83794 -0.217699
105 2 2.2208 13.6613 6.9906 2.52395
202 2 2.2208 13.5981 7.01355 8.05313
218 2 2.2208 10.8857 4.2217 8.05312
249 1 -1.1104 6.77918 11.1928 12.1556
254 1 -1.1104 6.58007 11.3606 9.47873
245 1 -1.1104 6.70859 8.45406 9.72356
269 1 -1.1104 9.41844 5.60556 6.72266
90 1 -1.1104 12.2831 11.1833 6.63472
248 1 -1.1104 6.68672 5.62813 12.4846
264 1 -1.1104 9.4749 11.1533 9.38248
268 1 -1.1104 9.50485 5.65304 9.47635
270 1 -1.1104 9.48664 11.3047 12.4588
271 1 -1.1104 9.57088 5.55008 12.3596
272 2 2.2208 8.24862 9.85681 10.8552
273 1 -1.1104 9.53225 8.48563 9.46641
274 2 2.2208 8.02899 12.6752 8.02655
275 2 2.2208 8.11452 7.02758 8.20885
276 2 2.2208 10.9446 7.04346 10.8678
277 2 2.2208 10.8322 12.6583 10.9599
278 1 -1.1104 12.267 8.51302 12.2814
279 1 -1.1104 12.3624 8.27516 9.47372
280 1 -1.1104 12.3318 5.63776 12.2033
281 1 -1.1104 12.2184 11.2806 12.1041
282 2 2.2208 10.9295 9.74732 7.99693
283 1 -1.1104 12.2024 5.72885 9.38312
284 1 -1.1104 12.2118 11.1036 9.41105
285 1 -1.1104 9.52112 8.35623 12.3018
317 2 2.2208 8.12397 15.4763 10.8949
296 1 -1.1104 6.71027 19.6645 12.2811
290 1 -1.1104 6.64162 14.028 9.49689
306 1 -1.1104 6.70098 16.9355 12.2798
118 1 -1.1104 6.67532 16.8261 6.69048
288 1 -1.1104 6.85755 19.5506 9.50745
124 1 -1.1104 3.87592 13.9828 6.86208
117 1 -1.1104 1.06988 16.7223 6.86043
126 1 -1.1104 3.77299 19.5226 6.62973
310 2 2.2208 2.45275 15.4591 10.9723
305 1 -1.1104 3.93841 14.0636 9.64415
309 2 2.2208 2.38702 21.0703 10.7739
301 1 -1.1104 3.9941 19.6969 9.51662
304 1 -1.1104 3.90303 17.0458 9.5526
298 1 -1.1104 0.945332 19.5456 12.3819
295 2 2.2208 5.25154 15.5192 8.17462
300 2 2.2208 5.36743 18.3455 10.8578
308 1 -1.1104 3.9369 16.8831 12.4763
307 1 -1.1104 1.10902 16.7353 12.3216
299 1 -1.1104 1.03195 13.9888 12.2308
303 2 2.2208 2.42741 18.1585 8.16423
286 1 -1.1104 3.78544 19.6607 12.0877
287 1 -1.1104 3.72081 14.0949 12.3911
291 1 -1.1104 1.07371 19.5371 9.53491
292 1 -1.1104 1.00113 16.7477 9.59732
293 2 2.2208 5.17103 21.0097 7.96761
294 1 -1.1104 1.16195 14.1518 9.55437
297 1 -1.1104 6.58847 14.0934 12.197
324 2 2.2208 10.9885 21.0498 8.06327
163 1 -1.1104 9.5561 16.7235 6.63108
318 1 -1.1104 9.63163 19.5876 9.41598
154 1 -1.1104 9.48471 13.9776 6.71415
319 1 -1.1104 9.41685 14.078 9.42534
315 1 -1.1104 9.4558 16.7826 12.367
327 1 -1.1104 12.5029 19.6153 9.55145
314 1 -1.1104 9.46002 16.8731 9.50788
321 1 -1.1104 9.55819 19.6293 12.197
320 2 2.2208 8.09515 18.141 8.13228
329 1 -1.1104 12.4271 19.6782 12.163
289 1 -1.1104 6.71041 16.84 9.57534
53 2 2.2208 13.6127 12.641 8.04942
231 2 2.2208 13.6622 20.9736 5.09234
29 2 2.2208 -0.17108 6.90651 10.8531
377 2 2.2208 13.6949 -1.27214 -0.371533
378 2 2.2208 13.6774 4.2518 -0.32116
136 2 2.2208 -0.347104 20.9544 2.43904
50 2 2.2208 13.6901 -1.31868 5.37742
27 2 2.2208 -0.329571 4.17913 2.54994
135 2 2.2208 -0.269309 15.3128 2.55274
199 2 2.2208 -0.218512 4.07735 8.11416
230 2 2.2208 13.6588 -1.36656 10.8003
382 2 2.2208 -0.332059 12.5625 -0.22731
341 2 2.2208 5.33108 4.17706 13.6944
333 2 2.2208 13.5845 15.4386 11.035
349 2 2.2208 7.88744 20.9711 -0.315176
358 2 2.2208 5.20173 21.0805 13.6108
368 2 2.2208 -0.350638 1.32884 -0.303866
82 2 2.2208 -0.320744 9.78033 2.51523
9004 2 2.2208 13.5632 -4.18994 8.08925
233 2 2.2208 13.5628 4.20391 5.3149
201 2 2.2208 -0.199302 1.4054 10.803
9020 2 2.2208 2.55234 -4.21005 13.659
357 2 2.2208 2.47454 18.1881 13.6937
348 2 2.2208 10.7549 18.2408 -0.230285
9014 2 2.2208 -0.321254 -4.12454 -0.273676
362 2 2.2208 8.08082 18.2393 13.5818
385 2 2.2208 7.96696 9.77945 -0.279407
375 2 2.2208 2.43671 20.9921 -0.311559
334 2 2.2208 -0.330262 -1.40789 13.6557
388 2 2.2208 5.35015 1.38966 16.587
389 1 -1.1104 1.08828 -2.78273 17.9199
390 1 -1.1104 1.13089 2.8007 17.898
393 1 -1.1104 1.07657 -2.7843 15
395 1 -1.1104 0.963758 2.76474 15.0101
401 1 -1.1104 1.06057 -0.0043677 17.7971
403 2 2.2208 5.22256 -1.27616 19.372
404 2 2.2208 5.2829 4.20707 19.3571
405 1 -1.1104 1.19821 -0.00949492 15.0385
409 1 -1.1104 3.8443 -2.70822 18.089
410 1 -1.1104 4.07299 2.7694 17.9033
411 2 2.2208 2.37124 1.38924 19.2675
412 1 -1.1104 3.85987 -2.72803 15.186
414 1 -1.1104 3.79901 2.86999 15.2046
416 2 2.2208 2.46893 -1.2402 16.5329
417 2 2.2208 2.49615 4.10201 16.4723
418 1 -1.1104 3.88879 0.108073 17.9867
419 1 -1.1104 3.82909 0.116729 15.155
391 1 -1.1104 6.67653 -2.80247 17.7973
407 1 -1.1104 6.7092 -0.00527722 15.0486
399 1 -1.1104 6.74935 2.96475 15.0338
352 2 2.2208 5.35756 9.77413 13.7096
392 1 -1.1104 6.9125 2.89023 17.9523
397 1 -1.1104 6.71167 -2.77084 15.2335
402 1 -1.1104 6.67194 0.0358424 17.9446
9159 2 2.2208 5.20712 -4.09262 16.5704
398 1 -1.1104 6.77101 -2.74964 20.7508
359 2 2.2208 5.30296 15.566 13.8191
431 2 2.2208 10.9183 1.44364 16.519
432 1 -1.1104 12.0889 -2.77166 17.9652
433 1 -1.1104 12.3261 2.84564 17.9284
434 1 -1.1104 12.2955 -2.88275 15.1342
436 1 -1.1104 12.3996 2.79624 15.0912
438 1 -1.1104 12.1562 0.0990976 17.9481
439 2 2.2208 10.8357 -1.36692 19.3391
440 2 2.2208 10.803 4.19279 19.3649
441 1 -1.1104 12.2594 0.0966269 15.1312
443 1 -1.1104 9.33516 -2.79209 17.9559
444 1 -1.1104 9.5799 2.86217 17.8767
445 2 2.2208 8.12826 1.47917 19.37
446 1 -1.1104 9.60462 -2.64813 15.2561
448 1 -1.1104 9.57541 2.68999 15.1571
450 2 2.2208 8.27586 -1.3045 16.6909
451 2 2.2208 8.15061 4.28386 16.3867
452 1 -1.1104 9.42354 0.146058 17.9524
453 1 -1.1104 9.49528 -0.0212341 15.1301
651 2 2.2208 13.6628 6.95891 19.3685
526 2 2.2208 10.9171 21.1142 24.8238
524 1 -1.1104 12.2998 16.8892 23.4616
356 2 2.2208 7.97483 12.7422 13.7453
9015 2 2.2208 13.4352 -4.1686 13.6837
437 1 -1.1104 12.3096 2.90231 20.8417
342 2 2.2208 -0.34878 15.4802 13.7744
619 2 2.2208 13.7006 15.3775 16.5152
338 2 2.2208 5.37843 -1.32986 13.7271
464 2 2.2208 5.25595 6.96425 16.4679
465 2 2.2208 5.18997 12.5553 16.6219
466 1 -1.1104 0.983821 8.56958 17.8277
468 1 -1.1104 1.06005 8.43642 15.1167
472 1 -1.1104 1.06171 5.58615 17.8711
473 1 -1.1104 0.988312 11.1577 18.0825
476 2 2.2208 5.19682 9.71958 19.4556
477 1 -1.1104 1.15355 5.56803 14.9934
479 1 -1.1104 1.00046 11.287 15.1582
485 1 -1.1104 3.85343 8.59603 17.9617
486 2 2.2208 2.46723 7.11708 19.2505
487 2 2.2208 2.45191 12.646 19.4137
488 1 -1.1104 3.90371 8.3339 15.202
490 2 2.2208 2.43362 9.83212 16.5666
491 1 -1.1104 3.88209 5.50007 17.7534
492 1 -1.1104 3.90297 11.2133 17.9377
493 1 -1.1104 3.90421 5.54321 15.0228
495 1 -1.1104 3.65342 11.1188 15.164
645 2 2.2208 -0.260943 21.1084 24.8508
474 1 -1.1104 6.61615 5.48682 17.8877
470 1 -1.1104 6.68371 8.42291 15.1083
475 1 -1.1104 6.60932 11.2557 18.0625
483 1 -1.1104 6.61046 11.2422 15.2092
481 1 -1.1104 6.84284 5.67988 15.1012
482 1 -1.1104 6.69473 5.60243 20.6757
9130 2 2.2208 13.6412 -4.1458 19.2912
9016 2 2.2208 8.06531 -4.10614 13.8138
467 1 -1.1104 6.7506 8.32576 17.9026
500 2 2.2208 10.8757 7.18636 16.6471
501 2 2.2208 10.8102 12.7818 16.4813
502 1 -1.1104 12.3167 8.48334 17.9128
503 1 -1.1104 12.3196 8.4109 15.0318
505 1 -1.1104 12.0293 5.598 17.8329
506 1 -1.1104 12.1786 11.3327 17.9916
507 2 2.2208 10.8011 9.88453 19.4489
508 1 -1.1104 12.3486 5.66409 15.1318
510 1 -1.1104 12.3037 11.1811 15.1819
512 1 -1.1104 9.49433 8.4674 18.0142
513 2 2.2208 8.11944 7.07732 19.4309
514 2 2.2208 8.02585 12.7658 19.3231
515 1 -1.1104 9.45105 8.52425 15.2793
517 2 2.2208 8.00801 9.81812 16.6287
518 1 -1.1104 9.44806 5.85108 17.9208
519 1 -1.1104 9.38776 11.4282 17.9605
520 1 -1.1104 9.61497 5.66699 15.2235
522 1 -1.1104 9.31984 11.398 15.1921
9128 2 2.2208 7.9284 -4.17759 19.3631
620 1 -1.1104 9.34568 16.7898 26.3904
523 1 -1.1104 9.55671 11.2329 20.7127
511 1 -1.1104 12.241 11.3439 20.8634
650 2 2.2208 13.548 12.6314 19.3504
421 2 2.2208 -0.29958 7.00566 22.1797
525 2 2.2208 10.8626 15.5004 24.9317
350 2 2.2208 10.9104 4.26078 13.7144
527 2 2.2208 5.2592 18.2388 16.5501
528 1 -1.1104 1.03215 14.027 17.9669
529 1 -1.1104 1.16701 19.7503 17.8764
532 1 -1.1104 1.01931 14.2777 15.2078
534 1 -1.1104 0.961649 19.7162 15.1515
540 1 -1.1104 0.961148 16.9058 17.9028
542 2 2.2208 5.21934 15.4617 19.4387
543 2 2.2208 5.27076 21.0413 19.2361
544 1 -1.1104 1.05586 16.9091 15.143
548 1 -1.1104 3.68889 14.043 17.9951
549 1 -1.1104 3.92101 19.6695 17.7361
550 2 2.2208 2.42622 18.3385 19.3784
551 1 -1.1104 3.85285 14.076 15.2631
553 1 -1.1104 3.82709 19.6774 14.8653
555 2 2.2208 2.57388 15.4378 16.4892
556 2 2.2208 2.50069 21.0496 16.5056
557 1 -1.1104 3.88764 16.8986 18.0104
558 1 -1.1104 3.97883 16.9516 15.2016
536 1 -1.1104 6.50669 14.0348 14.966
531 1 -1.1104 6.68704 19.5511 17.8672
530 1 -1.1104 6.63629 14.019 17.8736
538 1 -1.1104 6.68072 19.6459 14.9196
539 1 -1.1104 6.78703 19.5104 20.6895
626 2 2.2208 -0.302193 4.19204 25.0252
546 1 -1.1104 6.70981 16.9723 15.2198
456 2 2.2208 -0.261186 18.2657 16.5899
541 1 -1.1104 6.6941 16.6636 18
563 2 2.2208 10.8497 18.2902 16.4522
564 1 -1.1104 12.1612 14.098 17.9143
565 1 -1.1104 12.3424 19.658 17.7403
566 1 -1.1104 12.3849 13.8915 15.1819
568 1 -1.1104 12.283 19.4555 14.9845
570 1 -1.1104 12.3297 16.7909 17.8578
571 2 2.2208 10.8415 15.4615 19.3122
572 2 2.2208 11.049 21.0378 19.2034
573 1 -1.1104 12.4319 16.6897 15.0066
575 1 -1.1104 9.40779 14.1235 17.8625
576 1 -1.1104 9.48908 19.6434 17.8755
577 2 2.2208 8.10197 18.2835 19.1947
578 1 -1.1104 9.46689 14.096 15.157
580 1 -1.1104 9.39813 19.7068 14.9994
582 2 2.2208 7.9956 15.4235 16.5074
583 2 2.2208 8.10644 21.105 16.3763
584 1 -1.1104 9.5333 16.8504 17.8722
585 1 -1.1104 9.53838 16.8577 15.1111
581 1 -1.1104 9.57245 19.7781 20.5624
569 1 -1.1104 12.3349 19.6504 20.6034
708 2 2.2208 13.5551 12.6802 24.9853
586 1 -1.1104 9.43667 16.9446 20.7759
579 1 -1.1104 9.47331 14.1613 20.7638
420 1 -1.1104 3.90165 0.0129387 20.834
589 1 -1.1104 9.38381 14.0954 26.367
684 2 2.2208 -0.275992 9.65566 25.1212
351 2 2.2208 2.51046 6.98823 13.7258
394 1 -1.1104 0.857243 -2.68257 20.7589
415 1 -1.1104 3.87259 2.90592 20.7225
413 1 -1.1104 3.85223 -2.7559 20.8073
396 1 -1.1104 1.04477 2.94285 20.7454
406 1 -1.1104 1.03815 0.14863 20.7189
591 2 2.2208 5.19744 1.40914 22.3152
592 1 -1.1104 0.895982 -2.90023 23.5413
593 1 -1.1104 0.950224 2.89578 23.5767
596 1 -1.1104 1.11977 -2.76677 26.2838
597 1 -1.1104 1.26086 2.72543 26.4444
600 1 -1.1104 1.02866 0.0622362 23.4421
602 2 2.2208 5.31207 -1.29038 24.9752
603 2 2.2208 5.23998 4.13748 24.9561
604 1 -1.1104 1.14135 0.0339716 26.2719
606 1 -1.1104 3.89964 -2.74785 23.5188
607 1 -1.1104 3.71956 2.83356 23.4958
608 2 2.2208 2.52667 1.37039 25.0101
609 1 -1.1104 3.8858 -2.68133 26.2451
610 1 -1.1104 4.04975 2.87426 26.4695
611 2 2.2208 2.48569 -1.26663 22.1216
612 2 2.2208 2.43588 4.31351 22.0746
613 1 -1.1104 3.89877 0.0793073 23.5899
614 1 -1.1104 3.99563 -0.00746445 26.2438
605 1 -1.1104 6.82244 0.156717 26.5435
408 1 -1.1104 6.74192 0.0338939 20.709
595 1 -1.1104 6.61815 2.83701 23.6219
601 1 -1.1104 6.68852 0.129968 23.5748
594 1 -1.1104 6.74369 -2.68782 23.6142
9093 2 2.2208 5.25484 -4.11884 22.1602
400 1 -1.1104 6.55994 2.80606 20.8771
454 1 -1.1104 9.44855 0.0592148 20.6851
574 1 -1.1104 12.2859 16.9041 20.6843
354 2 2.2208 8.1967 7.06538 13.7892
598 1 -1.1104 6.66995 -2.63326 26.4529
599 1 -1.1104 6.7955 2.71244 26.3057
442 1 -1.1104 12.2327 0.170887 20.7009
449 1 -1.1104 9.46188 2.91389 20.7319
435 1 -1.1104 12.2764 -2.60656 20.8082
447 1 -1.1104 9.43538 -2.6863 20.8778
627 2 2.2208 10.8545 1.46271 22.1268
628 1 -1.1104 12.2932 -2.64709 23.6236
629 1 -1.1104 12.2215 2.88577 23.6125
630 1 -1.1104 12.2013 -2.59295 26.3973
631 1 -1.1104 12.3708 2.86805 26.3749
632 1 -1.1104 12.1676 0.141156 23.4774
633 2 2.2208 10.8245 -1.33111 24.9312
635 1 -1.1104 12.3743 0.0897994 26.2602
636 1 -1.1104 9.58065 -2.80329 23.6563
637 1 -1.1104 9.51281 2.95698 23.5458
638 2 2.2208 8.10988 1.47247 24.9495
639 1 -1.1104 9.43317 -2.84467 26.3143
640 1 -1.1104 9.47628 2.75846 26.4571
641 2 2.2208 8.02596 -1.39667 22.2084
642 2 2.2208 8.06184 4.29816 22.2174
643 1 -1.1104 9.34687 0.16814 23.5154
644 1 -1.1104 9.46642 0.0779835 26.4446
634 2 2.2208 10.885 4.2142 24.9581
498 1 -1.1104 12.2317 14.0794 26.3895
471 1 -1.1104 6.71475 8.36874 20.7133
494 1 -1.1104 3.9694 5.62586 20.6845
478 1 -1.1104 1.1072 5.79765 20.7424
496 1 -1.1104 3.97433 11.3467 20.6654
469 1 -1.1104 1.04854 8.48883 20.774
489 1 -1.1104 3.76522 8.52772 20.8356
480 1 -1.1104 0.963513 11.2689 20.8581
656 2 2.2208 5.27677 6.95368 22.2873
657 2 2.2208 5.26611 12.6348 22.1894
658 1 -1.1104 1.17159 8.38373 23.721
660 1 -1.1104 0.942855 8.35488 26.4492
662 1 -1.1104 1.06714 5.7108 23.5874
663 1 -1.1104 1.14486 11.1989 23.4716
666 2 2.2208 5.15322 9.75295 24.9127
667 1 -1.1104 1.171 5.47356 26.3932
668 1 -1.1104 1.04069 11.1063 26.4473
671 1 -1.1104 3.93727 8.39814 23.6077
672 2 2.2208 2.40605 6.99452 25.0125
673 2 2.2208 2.4752 12.6247 24.9214
674 1 -1.1104 3.60865 8.39757 26.4347
675 2 2.2208 2.403 9.78644 22.1722
676 1 -1.1104 3.8621 5.59635 23.575
677 1 -1.1104 3.78498 11.258 23.5021
678 1 -1.1104 4.04476 5.58722 26.3252
679 1 -1.1104 3.85182 11.1131 26.3595
661 1 -1.1104 6.58579 8.54097 26.2945
670 1 -1.1104 6.56965 11.2193 26.364
659 1 -1.1104 6.67452 8.45659 23.5364
665 1 -1.1104 6.57111 11.2392 23.5591
669 1 -1.1104 6.72145 5.58939 26.3649
353 2 2.2208 2.49803 12.6635 13.7336
461 2 2.2208 13.6754 21.0162 21.9585
484 1 -1.1104 6.6985 11.2216 20.7554
664 1 -1.1104 6.6026 5.66217 23.7367
516 1 -1.1104 9.40772 8.54471 20.871
521 1 -1.1104 9.53638 5.69201 20.7446
504 1 -1.1104 12.1671 8.55941 20.7404
509 1 -1.1104 12.2784 5.76226 20.7254
687 1 -1.1104 9.30351 11.172 26.1423
688 1 -1.1104 9.4627 5.57813 26.3862
689 1 -1.1104 9.44352 11.3294 23.4164
690 1 -1.1104 9.33934 5.65734 23.634
691 2 2.2208 8.10537 9.83054 22.214
692 1 -1.1104 9.39113 8.34767 26.4966
693 2 2.2208 8.02448 12.6225 25.0039
694 2 2.2208 8.05864 7.1422 25.0069
695 2 2.2208 10.8628 7.03979 22.2357
696 2 2.2208 10.7992 12.76 22.1315
697 1 -1.1104 12.3317 8.51361 23.5431
698 1 -1.1104 12.2456 8.51055 26.3208
699 1 -1.1104 12.2348 5.52406 23.5232
700 1 -1.1104 12.2935 11.3361 23.585
701 2 2.2208 10.8783 9.95965 24.8664
702 1 -1.1104 12.2682 5.83468 26.3334
703 1 -1.1104 12.1701 11.141 26.3581
704 1 -1.1104 9.51984 8.50233 23.6455
9092 2 2.2208 2.50107 -4.05743 24.7657
710 2 2.2208 13.683 7.02228 24.9883
426 2 2.2208 13.7064 9.7186 16.6129
712 1 -1.1104 6.62561 14.1115 26.4485
547 1 -1.1104 6.64549 16.817 20.7542
709 1 -1.1104 6.61573 13.9803 23.7344
559 1 -1.1104 3.76871 16.9714 20.6719
554 1 -1.1104 3.90293 19.6982 20.6411
533 1 -1.1104 0.952903 13.9725 20.7704
545 1 -1.1104 0.994664 17.0401 20.7309
535 1 -1.1104 0.858525 19.8219 20.8366
552 1 -1.1104 3.76809 14.1358 20.8589
719 2 2.2208 5.31656 21.1012 24.847
717 1 -1.1104 1.06294 14.0812 26.4001
720 2 2.2208 5.24624 15.4124 24.9832
647 2 2.2208 2.25816 15.3904 22.1961
649 2 2.2208 2.40366 21.1577 22.1581
652 1 -1.1104 3.84301 16.899 23.514
655 1 -1.1104 0.847397 16.6345 23.4988
681 1 -1.1104 3.70969 13.8055 26.4878
682 1 -1.1104 3.83152 16.5233 26.4664
683 2 2.2208 2.50697 18.1948 24.8835
686 1 -1.1104 3.81736 19.4981 26.4152
705 2 2.2208 5.17568 18.3011 22.06
706 1 -1.1104 1.02179 13.9049 23.7087
707 1 -1.1104 1.02038 19.5921 23.4936
711 1 -1.1104 3.72804 19.7486 23.3803
713 1 -1.1104 3.83194 14.1829 23.6444
715 1 -1.1104 1.06245 19.6496 26.1443
716 1 -1.1104 1.13147 16.8464 26.3078
680 1 -1.1104 6.51875 16.8438 23.5405
714 1 -1.1104 6.60888 16.9426 26.3137
718 1 -1.1104 6.60414 19.7863 23.4054
463 1 -1.1104 12.1826 14.1809 23.626
560 1 -1.1104 12.2231 16.9156 26.2801
345 2 2.2208 13.6445 21.1272 27.6762
562 1 -1.1104 9.45827 19.6308 23.5799
497 1 -1.1104 12.3129 19.6228 23.4372
615 2 2.2208 7.96502 15.506 22.1499
9158 2 2.2208 2.30733 -4.17783 19.5222
617 1 -1.1104 9.39907 16.9347 23.4318
499 1 -1.1104 12.1961 19.662 26.2946
587 2 2.2208 8.0522 18.2977 24.8907
590 1 -1.1104 9.40204 19.7057 26.4474
462 2 2.2208 10.8628 18.3659 22.0918
537 1 -1.1104 6.60112 14.0498 20.789
588 1 -1.1104 6.64568 19.7942 26.2009
561 1 -1.1104 9.4617 14.049 23.4751
616 2 2.2208 8.02519 21.0153 22.0954
567 1 -1.1104 12.2735 14.1791 20.7842
343 2 2.2208 8.15684 1.3959 13.6458
459 2 2.2208 13.598 -1.35735 16.4239
355 2 2.2208 10.9799 9.8283 13.7332
424 2 2.2208 -0.227741 1.37672 16.4087
422 2 2.2208 13.5936 9.88792 22.1522
646 2 2.2208 -0.359385 15.4193 25.0251
653 2 2.2208 13.6759 -1.351 22.2084
621 2 2.2208 -0.31795 7.03662 16.3771
455 2 2.2208 13.6653 18.2365 24.8354
648 2 2.2208 -0.338681 12.5655 16.5149
624 2 2.2208 -0.270579 -1.30366 24.8778
361 2 2.2208 11.0068 15.5168 13.7965
371 2 2.2208 -0.208698 18.215 27.615
344 2 2.2208 13.6307 15.4461 27.6527
339 2 2.2208 2.4494 1.4197 13.7928
721 2 2.2208 5.3145 23.9295 5.17237
722 2 2.2208 5.29448 29.4563 5.19372
723 1 -1.1104 1.1569 25.255 0.931044
724 1 -1.1104 1.13449 25.1812 3.83223
725 1 -1.1104 1.0504 22.4003 0.955727
726 1 -1.1104 1.01922 28.1612 0.946124
727 2 2.2208 5.27378 26.7142 2.25
728 1 -1.1104 1.05401 22.2235 3.90858
729 1 -1.1104 1.06574 27.9734 3.88696
730 1 -1.1104 3.83433 25.3367 1.00679
731 2 2.2208 2.45347 23.8314 2.42074
732 2 2.2208 2.44367 29.3751 2.31152
733 1 -1.1104 3.97484 25.2729 3.74969
734 2 2.2208 2.62291 26.6268 5.16869
735 1 -1.1104 3.81682 22.4111 0.919729
736 1 -1.1104 3.83476 28.122 0.815775
737 1 -1.1104 3.88586 22.4361 3.80461
738 1 -1.1104 3.95576 28.0944 3.68929
1059 2 2.2208 2.54163 40.5649 13.6165
745 1 -1.1104 6.68015 28.0639 1.00718
744 1 -1.1104 6.71063 22.4345 1.2624
742 1 -1.1104 6.603 25.0478 1.08364
747 1 -1.1104 6.64135 28.1643 3.77174
1026 1 -1.1104 12.4352 42.1475 9.56135
865 1 -1.1104 1.14725 27.9595 6.55551
862 1 -1.1104 1.06698 25.1887 6.61266
869 1 -1.1104 3.91635 22.3054 6.52412
1013 2 2.2208 8.09756 46.3041 8.09845
743 1 -1.1104 6.65566 25.3472 3.77391
746 1 -1.1104 6.76361 22.5004 4.01934
748 2 2.2208 10.9156 23.7718 5.07139
749 2 2.2208 10.795 29.4292 5.1513
750 1 -1.1104 12.3158 25.15 0.800547
751 1 -1.1104 12.3426 25.2391 3.57269
752 1 -1.1104 12.091 22.3011 0.992196
753 1 -1.1104 12.2346 28.0645 1.00291
754 2 2.2208 10.8681 26.5472 2.35096
755 1 -1.1104 12.3657 22.3215 3.66246
756 1 -1.1104 12.2715 28.0906 3.78942
757 1 -1.1104 9.69349 25.1434 0.99923
758 2 2.2208 8.09425 23.7629 2.35673
759 2 2.2208 8.06374 29.3099 2.41457
760 1 -1.1104 9.54325 25.0918 3.71929
761 2 2.2208 7.94333 26.5328 5.18171
762 1 -1.1104 9.3773 22.3601 0.965533
763 1 -1.1104 9.58336 27.9002 1.04869
764 1 -1.1104 9.45477 22.3886 3.93534
765 1 -1.1104 9.38732 27.7987 3.65677
839 2 2.2208 -0.309674 40.6092 5.34064
1607 1 -1.1104 1.10878 47.7743 6.63404
897 1 -1.1104 12.0877 27.8628 6.44223
900 1 -1.1104 9.36864 27.922 6.47892
896 1 -1.1104 12.3062 22.2678 6.5455
1051 2 2.2208 5.31725 32.1078 13.5894
1019 1 -1.1104 12.4637 44.3059 12.2301
1033 2 2.2208 13.6759 43.3422 5.19381
769 2 2.2208 5.2629 34.9512 5.25487
770 1 -1.1104 1.10016 30.9509 0.883521
771 1 -1.1104 1.14321 36.483 0.93503
773 1 -1.1104 1.0327 30.7912 3.81846
774 1 -1.1104 1.13914 36.4935 3.8264
776 1 -1.1104 1.02134 33.6561 1.11997
777 2 2.2208 5.28968 32.2511 2.30929
778 2 2.2208 5.37294 37.8458 2.38256
779 1 -1.1104 1.01398 33.5598 3.91657
781 1 -1.1104 3.72497 30.8816 0.971333
782 1 -1.1104 4.03495 36.473 0.919437
783 2 2.2208 2.55641 35.1829 2.35893
784 1 -1.1104 3.82083 30.8221 3.75106
785 1 -1.1104 3.92807 36.4461 3.8628
786 2 2.2208 2.47318 32.3309 5.0816
787 2 2.2208 2.5316 37.8705 5.23113
788 1 -1.1104 3.79933 33.6601 0.905962
789 1 -1.1104 3.91552 33.7635 3.60694
1005 2 2.2208 -0.241372 46.2883 10.8409
1044 2 2.2208 2.42184 29.3782 13.5281
795 1 -1.1104 6.6861 33.6265 0.963742
780 1 -1.1104 6.71901 33.5952 3.77426
794 1 -1.1104 6.65094 30.7673 3.69955
793 1 -1.1104 6.54196 30.8118 0.961783
919 1 -1.1104 1.13233 30.9265 6.57486
922 1 -1.1104 6.6422 36.3688 6.60449
921 1 -1.1104 6.6867 30.7588 6.51667
1031 2 2.2208 13.6329 37.7986 5.3716
775 1 -1.1104 6.68455 36.5724 3.81405
772 1 -1.1104 6.80791 36.43 1.11168
1057 2 2.2208 -0.331466 37.8323 13.5899
796 2 2.2208 10.8551 35.0662 5.26229
797 1 -1.1104 12.304 30.832 1.00576
798 1 -1.1104 12.3911 36.4066 1.08862
799 1 -1.1104 12.1457 30.9223 3.82207