ITEM: TIMESTEP
100000
ITEM: NUMBER OF ATOMS
17670
ITEM: BOX BOUNDS pp pp pp
-3.6212621763970637e-01 2.7702126217640323e+01
-4.2136417738923750e+00 3.3229364177388914e+02
-3.5311947569334401e-01 2.7693119475692239e+01
ITEM: ATOMS id type q x y z
1 2 2.2208 5.17269 1.3575 5.29805
2 1 -1.1104 1.03062 -2.61566 1.00561
3 1 -1.1104 0.869871 2.94347 1.10305
6 1 -1.1104 0.818525 -2.77405 3.73272
7 1 -1.1104 0.860388 2.81772 3.9667
10 1 -1.1104 0.83385 0.120204 1.0818
12 2 2.2208 5.05512 -1.35146 2.45938
13 2 2.2208 5.37017 4.17014 2.61566
14 1 -1.1104 0.959357 0.0678439 3.89337
16 1 -1.1104 3.85437 -2.86443 1.12396
17 1 -1.1104 3.83888 2.80904 1.18805
18 2 2.2208 2.38973 1.46162 2.49331
19 1 -1.1104 3.76234 -2.85673 3.91829
20 1 -1.1104 3.76267 2.70599 3.93223
21 2 2.2208 2.33819 -1.50257 5.20024
22 2 2.2208 2.33582 4.17134 5.28963
23 1 -1.1104 3.7098 0.0340733 1.03451
24 1 -1.1104 3.7276 -0.195526 3.94273
5 1 -1.1104 6.53038 2.77579 1.01237
11 1 -1.1104 6.53474 -0.0295206 1.20577
8996 2 2.2208 7.96387 -4.16394 2.53879
9 1 -1.1104 6.68176 2.7671 3.97808
15 1 -1.1104 6.51713 -0.0296365 3.77165
173 1 -1.1104 3.85025 2.90446 6.65534
364 2 2.2208 5.21543 1.37827 -0.327194
365 2 2.2208 2.37479 -1.20672 -0.483466
4 1 -1.1104 6.54565 -2.9284 0.942146
8 1 -1.1104 6.52304 -2.7884 3.68177
370 2 2.2208 7.8603 -1.38531 -0.32444
31 2 2.2208 10.8116 1.32826 5.28981
32 1 -1.1104 12.3241 -2.85929 1.10792
33 1 -1.1104 12.2097 2.90107 1.25552
34 1 -1.1104 12.2507 -2.93735 3.91095
35 1 -1.1104 12.2562 2.86069 3.9141
36 1 -1.1104 12.0247 -0.043649 1.1191
37 2 2.2208 10.7367 -1.48053 2.46368
39 1 -1.1104 12.191 0.00561165 3.89763
40 1 -1.1104 9.40365 -2.71958 1.09324
41 1 -1.1104 9.39764 2.72697 1.20378
42 2 2.2208 8.02663 1.38097 2.5927
43 1 -1.1104 9.31306 -2.7984 4.07859
44 1 -1.1104 9.41062 2.82886 3.95821
45 2 2.2208 7.85078 -1.40938 5.33592
46 2 2.2208 8.09607 4.13185 5.39245
47 1 -1.1104 9.35694 -0.0694976 1.19486
48 1 -1.1104 9.47961 -0.136025 3.92732
38 2 2.2208 10.8215 4.25705 2.59487
369 2 2.2208 10.7513 1.28402 -0.149196
9008 2 2.2208 10.9679 -4.1354 -0.314851
51 2 2.2208 -0.361097 12.7354 10.8506
9004 2 2.2208 13.6381 -4.22367 8.22879
8993 2 2.2208 2.3129 -4.28589 2.41907
372 2 2.2208 8.06653 4.22552 -0.309987
81 2 2.2208 -0.396554 7.07169 5.25583
136 2 2.2208 -0.272316 21.0468 2.53469
54 2 2.2208 5.22486 7.04478 5.22412
55 2 2.2208 5.35663 12.5589 5.24356
56 1 -1.1104 0.856888 8.29671 1.17258
58 1 -1.1104 1.12782 8.45815 3.86048
60 1 -1.1104 0.906832 5.53493 1.00695
61 1 -1.1104 1.02359 11.2934 1.14614
66 2 2.2208 5.40104 9.74668 2.36894
67 1 -1.1104 1.00527 5.71056 3.86986
68 1 -1.1104 0.973644 11.3465 3.8584
71 1 -1.1104 3.74728 8.41373 0.99795
72 2 2.2208 2.40046 6.93595 2.52539
73 2 2.2208 2.47597 12.69 2.58603
74 1 -1.1104 3.90145 8.46438 3.78361
75 2 2.2208 2.52873 9.92862 5.31185
76 1 -1.1104 3.89016 5.57462 1.15599
77 1 -1.1104 3.88243 11.256 1.06386
79 1 -1.1104 3.80074 5.53592 3.85638
80 1 -1.1104 3.82505 11.231 3.8295
57 1 -1.1104 6.66224 8.26351 0.883188
59 1 -1.1104 6.60977 8.30828 3.78988
69 1 -1.1104 6.7144 5.5547 3.92757
63 1 -1.1104 6.75208 5.50799 1.20965
64 1 -1.1104 6.74432 11.1579 1.02447
78 1 -1.1104 3.98702 11.1074 6.57292
52 2 2.2208 13.8659 9.78387 10.9387
70 1 -1.1104 6.65439 11.3024 3.86478
50 2 2.2208 13.6437 -1.44782 5.36272
84 2 2.2208 10.819 7.02698 5.32108
85 2 2.2208 10.8847 12.6577 5.19338
86 1 -1.1104 12.3439 8.50572 1.19949
87 1 -1.1104 12.2042 8.40958 3.8437
88 1 -1.1104 12.3478 5.75878 1.15896
89 1 -1.1104 12.4116 11.2875 1.19715
91 2 2.2208 10.9324 9.79947 2.33992
92 1 -1.1104 12.1834 5.56264 4.04023
93 1 -1.1104 12.4889 11.3397 3.89376
94 1 -1.1104 9.50053 8.31873 1.19845
95 2 2.2208 7.92403 6.96269 2.48956
96 2 2.2208 8.08133 12.686 2.43374
97 1 -1.1104 9.40609 8.45422 3.88953
98 2 2.2208 8.21544 9.9047 5.32852
99 1 -1.1104 9.54521 5.61013 1.10224
100 1 -1.1104 9.60173 11.1952 0.945499
102 1 -1.1104 9.55341 5.7869 3.82085
103 1 -1.1104 9.59151 11.2552 3.90085
358 2 2.2208 5.16107 21.0898 13.6291
83 2 2.2208 -0.291675 12.7487 5.32894
27 2 2.2208 -0.467712 4.13957 2.44957
165 2 2.2208 13.5551 18.3202 2.24513
106 2 2.2208 5.44078 18.1939 5.23352
107 1 -1.1104 1.15233 13.9346 1.15598
109 1 -1.1104 1.16727 19.763 1.15505
113 1 -1.1104 1.03401 14.0805 3.91541
114 1 -1.1104 1.22361 19.5904 3.87684
116 1 -1.1104 1.27552 16.8895 1.05925
119 2 2.2208 5.39538 15.4105 2.35928
120 2 2.2208 5.34125 20.8792 2.4442
121 1 -1.1104 1.0225 16.8603 3.87412
123 1 -1.1104 3.85762 14.0564 1.13442
125 1 -1.1104 3.78584 19.5194 0.887938
127 2 2.2208 2.51889 18.2542 2.45886
128 1 -1.1104 3.92008 13.9729 4.00977
129 1 -1.1104 4.02145 19.5605 3.67216
130 2 2.2208 2.5082 15.4207 5.34088
131 2 2.2208 2.55516 21.0338 5.24831
132 1 -1.1104 4.05937 16.8579 1.06729
134 1 -1.1104 4.05689 16.8314 3.8634
108 1 -1.1104 1.17402 14.1693 6.71493
140 1 -1.1104 6.77514 16.656 1.08909
122 1 -1.1104 6.82472 16.8191 3.89291
115 1 -1.1104 6.72269 14.032 3.93719
110 1 -1.1104 6.6499 13.9199 1.14706
138 1 -1.1104 6.66009 19.6348 1.03447
230 2 2.2208 13.687 -1.45391 10.9729
302 1 -1.1104 1.21757 19.6753 6.58427
126 1 -1.1104 3.9838 19.6683 6.44889
9012 2 2.2208 5.14974 -4.3043 -0.350905
327 1 -1.1104 12.3838 19.6913 9.43464
149 1 -1.1104 12.3657 16.634 6.60643
139 1 -1.1104 6.84479 19.4588 3.80993
141 2 2.2208 11.0127 18.1714 5.01197
142 1 -1.1104 12.2621 14.2136 0.918358
144 1 -1.1104 12.2141 19.7944 0.872572
146 1 -1.1104 12.287 14.1673 3.785
147 1 -1.1104 12.3752 19.6252 3.67639
148 1 -1.1104 12.3096 17.0619 0.755596
150 2 2.2208 10.7978 15.4195 2.40593
151 2 2.2208 10.8778 21.0048 2.45521
152 1 -1.1104 12.2416 16.8477 3.74158
153 1 -1.1104 9.35878 13.9722 0.987111
155 1 -1.1104 9.44793 19.6466 1.10809
157 2 2.2208 8.03867 18.1162 2.44981
158 1 -1.1104 9.59768 13.9726 3.75938
159 1 -1.1104 9.56237 19.4185 3.64997
160 2 2.2208 8.00749 15.3457 5.28366
161 2 2.2208 8.08765 20.9871 5.24347
162 1 -1.1104 9.56902 16.7937 0.926427
164 1 -1.1104 9.38106 16.676 3.86771
163 1 -1.1104 9.5572 16.7698 6.69119
145 1 -1.1104 12.3439 19.4128 6.5546
322 1 -1.1104 9.51704 14.0289 12.1441
28 2 2.2208 13.573 20.96 10.8931
201 2 2.2208 -0.459519 1.47472 10.8742
143 1 -1.1104 12.3227 13.9606 6.64211
166 1 -1.1104 1.02166 -2.95493 6.62162
167 1 -1.1104 0.987321 2.71927 6.73369
170 1 -1.1104 1.01665 -0.0827139 6.52222
168 1 -1.1104 6.47016 -2.84647 6.59367
172 1 -1.1104 3.74869 -2.72971 6.67472
174 1 -1.1104 4.02708 0.19132 6.79092
175 2 2.2208 5.22827 1.4078 10.9807
176 1 -1.1104 1.21792 -2.77964 12.3167
177 1 -1.1104 1.08755 2.98372 12.3568
180 1 -1.1104 0.985318 -2.7859 9.39818
181 1 -1.1104 1.02196 2.83929 9.42255
184 1 -1.1104 0.930278 0.143831 12.282
186 2 2.2208 5.22375 -1.38599 8.08842
188 1 -1.1104 1.011 0.0467984 9.37576
190 1 -1.1104 3.90752 -2.81396 12.2427
191 1 -1.1104 3.97486 2.83993 12.3923
192 2 2.2208 2.48147 1.53844 8.11214
193 1 -1.1104 3.71056 -2.73805 9.44854
194 1 -1.1104 3.87657 2.83948 9.44711
195 2 2.2208 2.37576 -1.3561 10.8114
196 2 2.2208 2.43579 4.2842 10.8646
197 1 -1.1104 3.62032 0.0783616 12.3522
198 1 -1.1104 3.92942 0.097251 9.52627
187 2 2.2208 5.27213 4.22443 8.0399
182 1 -1.1104 6.60102 -2.79232 9.44369
189 1 -1.1104 6.5782 0.0328991 9.47527
171 1 -1.1104 6.55965 -0.11182 6.60807
185 1 -1.1104 6.56532 -0.0967281 12.4225
183 1 -1.1104 6.58948 2.76819 9.57271
179 1 -1.1104 6.64084 2.59029 12.2728
169 1 -1.1104 6.69678 2.70373 6.70848
210 1 -1.1104 9.45193 -0.135375 6.81628
208 1 -1.1104 9.34352 -2.85193 6.81668
118 1 -1.1104 6.83013 16.7799 6.73076
178 1 -1.1104 6.64921 -2.92318 12.4259
209 1 -1.1104 9.54196 2.76081 6.72187
205 1 -1.1104 12.0961 -2.81634 6.75884
206 1 -1.1104 12.3234 2.64461 6.67147
207 1 -1.1104 12.25 -0.0591197 6.82649
211 2 2.2208 10.7933 1.2359 10.9039
212 1 -1.1104 12.1853 -2.85622 12.2692
213 1 -1.1104 12.3677 2.87085 12.3724
214 1 -1.1104 12.1632 -2.87059 9.54209
215 1 -1.1104 12.2361 2.81985 9.48367
216 1 -1.1104 12.2126 -0.035878 12.4642
217 2 2.2208 10.801 -1.44059 8.11041
219 1 -1.1104 12.2008 -0.0266182 9.73645
220 1 -1.1104 9.2757 -2.95248 12.3027
221 1 -1.1104 9.38838 2.77725 12.417
222 2 2.2208 8.02025 1.27151 8.15465
223 1 -1.1104 9.31515 -2.91314 9.60227
224 1 -1.1104 9.4169 2.57538 9.55396
225 2 2.2208 7.88648 -1.52431 11.0115
226 2 2.2208 8.0611 4.22758 10.7889
227 1 -1.1104 9.47182 -0.135901 12.4989
228 1 -1.1104 9.32052 -0.176423 9.7231
218 2 2.2208 10.8976 4.08589 8.0715
317 2 2.2208 8.19499 15.385 10.8496
137 2 2.2208 -0.331862 18.2894 5.20708
62 1 -1.1104 0.959853 11.4143 6.75775
238 1 -1.1104 3.87463 8.41824 6.53149
65 1 -1.1104 6.72599 11.2994 6.70104
288 1 -1.1104 6.73549 19.6526 9.38965
239 1 -1.1104 3.75378 5.66648 6.70908
236 1 -1.1104 0.986577 5.69071 6.70197
234 1 -1.1104 1.03693 8.43797 6.64731
240 2 2.2208 5.30059 7.06686 10.8011
241 2 2.2208 5.34679 12.712 10.7656
242 1 -1.1104 1.05772 8.35375 12.233
244 1 -1.1104 1.09075 8.50324 9.38495
246 1 -1.1104 1.10295 5.75484 12.2603
247 1 -1.1104 1.1304 11.1479 12.1417
250 2 2.2208 5.25787 9.84835 8.04553
251 1 -1.1104 1.0473 5.59349 9.54763
252 1 -1.1104 0.964608 11.415 9.44331
255 1 -1.1104 3.92462 8.43364 12.231
256 2 2.2208 2.32331 7.03861 8.08135
257 2 2.2208 2.42368 12.7306 8.15553
258 1 -1.1104 3.82047 8.53463 9.41194
259 2 2.2208 2.52162 9.93003 10.8416
260 1 -1.1104 3.86986 5.76503 12.2724
261 1 -1.1104 3.90625 11.2096 12.1681
262 1 -1.1104 3.8335 5.71853 9.53164
263 1 -1.1104 3.71617 11.318 9.31724
243 1 -1.1104 6.73894 8.44875 12.2222
248 1 -1.1104 6.84651 5.67864 12.1541
245 1 -1.1104 6.8104 8.45576 9.39751
254 1 -1.1104 6.71595 11.2894 9.4117
253 1 -1.1104 6.5338 5.64619 9.44254
249 1 -1.1104 6.62303 11.19 12.1934
237 1 -1.1104 6.58171 5.59442 6.68844
235 1 -1.1104 6.72627 8.49148 6.4875
314 1 -1.1104 9.84942 16.8314 9.53189
112 1 -1.1104 6.65532 19.5964 6.56543
90 1 -1.1104 12.228 11.1703 6.71804
266 1 -1.1104 12.3148 5.46514 6.69651
379 2 2.2208 5.22951 7.07012 -0.324538
101 1 -1.1104 9.53398 11.212 6.64754
269 1 -1.1104 9.42426 5.49335 6.6514
265 1 -1.1104 12.3171 8.24835 6.63733
267 1 -1.1104 9.48858 8.34659 6.73986
264 1 -1.1104 9.56828 11.2064 9.54452
268 1 -1.1104 9.36114 5.41074 9.26048
270 1 -1.1104 9.3987 11.2172 12.2654
271 1 -1.1104 9.70223 5.56403 12.0116
272 2 2.2208 8.11636 9.83437 10.7537
273 1 -1.1104 9.41803 8.33475 9.4247
274 2 2.2208 8.11048 12.6974 8.08668
275 2 2.2208 7.96842 7.01035 8.00849
276 2 2.2208 10.9684 7.0772 10.848
277 2 2.2208 10.9953 12.5315 10.9516
278 1 -1.1104 12.2569 8.41264 12.2418
279 1 -1.1104 12.3958 8.33909 9.49312
280 1 -1.1104 12.3946 5.59495 12.1961
281 1 -1.1104 12.3089 11.1702 12.3734
282 2 2.2208 10.9341 9.80047 8.04441
283 1 -1.1104 12.2197 5.56535 9.42627
284 1 -1.1104 12.5043 11.3542 9.54856
285 1 -1.1104 9.53805 8.50498 12.2429
331 2 2.2208 11.0983 18.1253 10.8249
124 1 -1.1104 3.90013 13.9337 6.63034
321 1 -1.1104 9.28209 19.5158 12.2223
296 1 -1.1104 6.57554 19.6548 12.1572
297 1 -1.1104 6.79497 13.8383 12.1488
289 1 -1.1104 6.8197 16.937 9.46749
133 1 -1.1104 4.10107 16.8314 6.62362
117 1 -1.1104 1.22023 16.9305 6.64822
310 2 2.2208 2.58234 15.4997 10.8479
305 1 -1.1104 3.90529 13.9988 9.50305
309 2 2.2208 2.53286 20.9841 10.8404
301 1 -1.1104 3.93359 19.7284 9.44363
304 1 -1.1104 3.95104 16.8358 9.48153
298 1 -1.1104 1.06027 19.5834 12.2023
295 2 2.2208 5.40555 15.5459 8.05568
300 2 2.2208 5.27479 18.22 10.8352
308 1 -1.1104 3.97805 16.948 12.1821
307 1 -1.1104 1.2096 16.8391 12.2236
299 1 -1.1104 1.03656 13.9728 12.2821
303 2 2.2208 2.55365 18.3032 8.0083
286 1 -1.1104 3.7283 19.6654 12.2423
287 1 -1.1104 3.95363 14.0353 12.2775
291 1 -1.1104 1.10561 19.5431 9.31093
292 1 -1.1104 1.20273 16.8495 9.56578
293 2 2.2208 5.38587 21.0661 8.09148
294 1 -1.1104 1.15915 14.2299 9.66532
306 1 -1.1104 6.82314 16.6625 12.5414
111 1 -1.1104 6.6301 13.9867 6.67916
384 2 2.2208 10.9092 7.023 -0.138183
154 1 -1.1104 9.40265 13.9631 6.58796
329 1 -1.1104 12.2489 19.6425 12.3246
324 2 2.2208 10.952 21.0262 8.03107
362 2 2.2208 8.14436 18.2392 13.6578
326 1 -1.1104 12.4445 16.809 12.1116
290 1 -1.1104 6.66187 14.1239 9.42074
320 2 2.2208 8.17041 18.3036 7.98681
330 1 -1.1104 12.3224 14.0227 12.1734
323 1 -1.1104 12.4882 16.8056 9.43182
318 1 -1.1104 9.49823 19.6904 9.23549
156 1 -1.1104 9.5672 19.4807 6.45541
328 1 -1.1104 12.3696 14.1318 9.41209
325 2 2.2208 10.8949 15.3755 7.99348
319 1 -1.1104 9.57855 13.9541 9.35577
316 2 2.2208 8.01448 21.0184 10.9038
315 1 -1.1104 9.61538 16.7197 12.3188
105 2 2.2208 13.6218 7.00665 2.59387
29 2 2.2208 -0.395107 7.10075 10.9461
377 2 2.2208 13.7507 -1.39867 -0.270514
202 2 2.2208 13.7553 6.95823 8.22957
311 2 2.2208 -0.272856 20.9665 8.05694
49 2 2.2208 13.6453 1.42085 2.54017
204 2 2.2208 13.7339 15.4301 5.26702
371 2 2.2208 -0.208355 18.1635 -0.306216
339 2 2.2208 2.4443 1.52343 13.7626
373 2 2.2208 2.57325 15.5164 -0.335809
350 2 2.2208 10.8511 4.28087 13.6923
380 2 2.2208 2.32288 9.7785 -0.312161
343 2 2.2208 8.13245 1.40352 13.8097
352 2 2.2208 5.25838 9.88348 13.6902
351 2 2.2208 2.49786 7.1457 13.7032
356 2 2.2208 8.06496 12.6159 13.6879
342 2 2.2208 -0.236346 15.4673 13.6687
375 2 2.2208 2.48122 21.0559 -0.19051
366 2 2.2208 2.54754 4.22591 -0.345974
378 2 2.2208 13.5449 4.2681 -0.260888
355 2 2.2208 11.0079 9.80431 13.7436
367 2 2.2208 -0.219596 9.90109 13.5831
361 2 2.2208 11.0137 15.3727 13.511
360 2 2.2208 10.8479 21.0758 13.634
388 2 2.2208 5.37792 1.34185 16.5033
389 1 -1.1104 1.16913 -2.74443 17.8251
390 1 -1.1104 1.07754 2.85368 18.019
393 1 -1.1104 1.05118 -2.92574 15.0582
395 1 -1.1104 1.01317 2.74883 15.2861
401 1 -1.1104 1.05289 0.00936564 17.8293
403 2 2.2208 5.16296 -1.44659 19.3104
405 1 -1.1104 1.09902 -0.0646595 15.0509
409 1 -1.1104 3.81779 -2.82097 17.9052
410 1 -1.1104 3.89493 2.49586 17.8268
411 2 2.2208 2.52484 1.40901 19.2802
412 1 -1.1104 3.92893 -2.89832 15.1306
414 1 -1.1104 3.7795 2.83598 15.0438
416 2 2.2208 2.57708 -1.53781 16.4532
417 2 2.2208 2.51662 4.19631 16.4495
418 1 -1.1104 3.90908 -0.189831 17.8724
419 1 -1.1104 4.05379 0.00871128 15.3229
404 2 2.2208 5.40096 4.15863 19.2447
9158 2 2.2208 2.51352 -4.19228 19.2674
402 1 -1.1104 6.80117 -0.00808003 18.1878
341 2 2.2208 5.32429 4.2165 13.6125
399 1 -1.1104 6.71885 2.8951 15.1895
391 1 -1.1104 6.54455 -2.92158 17.9692
392 1 -1.1104 6.67527 2.82503 17.9474
9127 2 2.2208 -0.409838 -4.0499 22.0767
708 2 2.2208 13.6498 12.5564 24.9989
407 1 -1.1104 6.82438 0.0554616 15.2845
397 1 -1.1104 6.51139 -2.6641 15.2425
431 2 2.2208 11.005 1.41197 16.5059
432 1 -1.1104 12.2653 -2.92918 17.9481
433 1 -1.1104 12.3243 2.92665 17.9055
434 1 -1.1104 12.2301 -2.8092 15.1436
436 1 -1.1104 12.446 2.77075 15.065
438 1 -1.1104 12.4487 0.013498 18.1094
439 2 2.2208 10.861 -1.39301 19.4368
440 2 2.2208 10.9125 4.30708 19.1981
441 1 -1.1104 12.3349 -0.0743982 15.1897
443 1 -1.1104 9.44097 -2.97549 17.9842
444 1 -1.1104 9.64427 2.8653 18.0063
445 2 2.2208 8.1984 1.42958 19.3646
446 1 -1.1104 9.39379 -2.84214 15.1487
448 1 -1.1104 9.63294 2.99485 15.2919
450 2 2.2208 8.02949 -1.44857 16.6691
451 2 2.2208 8.06732 4.30928 16.5278
452 1 -1.1104 9.48133 -0.0436005 17.9032
453 1 -1.1104 9.5945 0.0504423 15.2668
646 2 2.2208 -0.355685 15.3724 24.8318
458 2 2.2208 -0.412423 21.077 19.1273
374 2 2.2208 5.29453 18.1983 27.6379
621 2 2.2208 -0.432869 7.10063 16.5601
346 2 2.2208 10.7499 -1.58055 13.7329
684 2 2.2208 -0.409776 9.90636 24.9455
464 2 2.2208 5.25372 7.04458 16.3547
465 2 2.2208 5.29409 12.5658 16.531
466 1 -1.1104 1.13455 8.46016 17.838
468 1 -1.1104 1.18061 8.55813 15.1574
472 1 -1.1104 1.0952 5.66108 17.7885
473 1 -1.1104 1.22506 11.2587 17.8539
476 2 2.2208 5.37191 9.76016 19.3111
477 1 -1.1104 1.01297 5.61266 14.9729
479 1 -1.1104 1.00665 11.3264 15.1646
485 1 -1.1104 3.94315 8.45701 17.9096
486 2 2.2208 2.53372 6.87561 19.1689
487 2 2.2208 2.59024 12.6186 19.21
488 1 -1.1104 3.99121 8.45498 14.9905
490 2 2.2208 2.55535 9.88359 16.602
491 1 -1.1104 4.0123 5.52263 17.8987
492 1 -1.1104 4.12165 11.1205 17.9384
493 1 -1.1104 3.92748 5.58023 15.0934
495 1 -1.1104 3.78496 11.1975 15.1036
475 1 -1.1104 6.80293 11.2385 17.8596
474 1 -1.1104 6.79879 5.62843 17.8548
470 1 -1.1104 6.77302 8.59612 15.0022
467 1 -1.1104 6.67365 8.50891 17.7819
9091 2 2.2208 13.5853 -4.13756 24.9824
623 2 2.2208 -0.363791 18.2603 22.1686
483 1 -1.1104 6.56882 11.2393 14.9599
481 1 -1.1104 6.70024 5.70751 15.0021
500 2 2.2208 10.8946 7.04609 16.538
501 2 2.2208 10.9016 12.618 16.4071
502 1 -1.1104 12.4453 8.46855 17.861
503 1 -1.1104 12.4117 8.42984 15.019
505 1 -1.1104 12.3544 5.76044 17.7647
506 1 -1.1104 12.2533 11.3366 17.9065
507 2 2.2208 10.892 9.93992 19.3121
508 1 -1.1104 12.3443 5.64856 14.9016
510 1 -1.1104 12.2966 11.2314 15.0856
512 1 -1.1104 9.50827 8.46041 17.903
513 2 2.2208 8.13773 7.04709 19.1912
514 2 2.2208 8.20738 12.6155 19.1774
515 1 -1.1104 9.49632 8.4325 15.0964
517 2 2.2208 8.13185 9.85759 16.4694
518 1 -1.1104 9.64884 5.73388 17.768
519 1 -1.1104 9.54986 11.1642 17.7934
520 1 -1.1104 9.48175 5.72724 14.9115
522 1 -1.1104 9.33626 11.2735 15.1015
516 1 -1.1104 9.59232 8.39392 20.6095
349 2 2.2208 8.06811 21.1807 27.7009
425 2 2.2208 -0.275081 -1.44672 19.2165
424 2 2.2208 -0.342886 1.33322 16.4908
653 2 2.2208 13.6606 -1.46717 22.263
9020 2 2.2208 2.22561 -4.35177 13.657
421 2 2.2208 -0.390061 7.08269 22.0726
626 2 2.2208 -0.347176 4.30809 24.9187
354 2 2.2208 8.11966 7.14666 13.5267
654 2 2.2208 13.6956 1.41604 24.9701
527 2 2.2208 5.1965 18.2291 16.5418
528 1 -1.1104 1.12669 14.0233 18.023
529 1 -1.1104 1.03019 19.575 17.9123
532 1 -1.1104 1.28813 14.0567 15.2026
534 1 -1.1104 1.12682 19.5477 15.1105
540 1 -1.1104 0.940091 16.7308 17.7005
542 2 2.2208 5.25488 15.4168 19.3372
543 2 2.2208 5.34846 21.0617 19.2667
544 1 -1.1104 1.15066 16.8216 15.0989
548 1 -1.1104 4.00595 13.9063 17.821
549 1 -1.1104 3.79273 19.6784 17.7319
550 2 2.2208 2.40078 18.1297 19.2595
551 1 -1.1104 4.11896 13.942 14.996
553 1 -1.1104 3.86586 19.4877 14.9749
555 2 2.2208 2.5898 15.3984 16.5282
556 2 2.2208 2.4584 21.0999 16.4567
557 1 -1.1104 3.83693 16.7809 17.921
558 1 -1.1104 3.92332 16.8741 15.0595
531 1 -1.1104 6.77306 19.5647 17.7513
530 1 -1.1104 6.73722 13.9462 17.8122
546 1 -1.1104 6.78055 16.9846 15.2314
552 1 -1.1104 4.07533 14.0927 20.5762
538 1 -1.1104 6.60618 19.7055 14.9791
536 1 -1.1104 6.73785 14.1 14.9362
710 2 2.2208 13.6303 7.0395 24.9715
541 1 -1.1104 6.71397 16.7064 17.9307
537 1 -1.1104 6.69277 13.9876 20.5915
535 1 -1.1104 1.1463 19.5169 20.7831
559 1 -1.1104 3.8564 16.8799 20.7578
533 1 -1.1104 1.04011 14.112 20.7479
9092 2 2.2208 2.46256 -4.13519 24.7924
648 2 2.2208 -0.299617 12.7968 16.472
617 1 -1.1104 9.55861 16.7429 23.27
579 1 -1.1104 9.57485 13.9711 20.6504
574 1 -1.1104 12.216 16.8218 20.7889
563 2 2.2208 10.9071 18.3254 16.4182
564 1 -1.1104 12.2725 14.1453 17.8776
565 1 -1.1104 12.261 19.6214 17.9111
566 1 -1.1104 12.3041 13.9409 14.9985
568 1 -1.1104 12.2575 19.691 15.1209
570 1 -1.1104 12.2749 16.8891 17.755
571 2 2.2208 11.0159 15.4513 19.2968
572 2 2.2208 11.0173 20.9979 19.401
573 1 -1.1104 12.3952 16.8603 15.055
575 1 -1.1104 9.52482 14.0478 17.7651
576 1 -1.1104 9.46496 19.8499 17.8389
577 2 2.2208 8.06444 18.2106 19.2523
578 1 -1.1104 9.50549 13.9987 15.0582
580 1 -1.1104 9.43992 19.6412 15.1598
582 2 2.2208 8.09747 15.4153 16.3577
583 2 2.2208 8.06045 21.067 16.4785
584 1 -1.1104 9.60432 16.8582 17.9036
585 1 -1.1104 9.63454 16.9075 15.0477
581 1 -1.1104 9.5395 19.6111 20.8224
569 1 -1.1104 12.2745 19.6149 20.8125
539 1 -1.1104 6.71452 19.5567 20.6589
586 1 -1.1104 9.47492 16.9276 20.6087
427 2 2.2208 -0.335492 4.26201 19.2772
420 1 -1.1104 3.83183 0.0374567 20.7345
394 1 -1.1104 0.975042 -2.79676 20.6595
396 1 -1.1104 1.01103 2.94614 20.811
406 1 -1.1104 1.12472 0.153963 20.5793
415 1 -1.1104 3.8481 2.86201 20.8036
413 1 -1.1104 3.69206 -2.79239 20.7017
591 2 2.2208 5.22925 1.48709 22.1736
592 1 -1.1104 1.01907 -2.73554 23.4769
593 1 -1.1104 1.07676 2.85158 23.5595
596 1 -1.1104 0.966456 -2.74645 26.2699
597 1 -1.1104 1.08813 2.77613 26.2948
600 1 -1.1104 1.05511 -0.0104377 23.5162
602 2 2.2208 5.13202 -1.44842 24.8185
603 2 2.2208 5.25307 4.24496 24.9974
604 1 -1.1104 0.94636 0.0880593 26.171
606 1 -1.1104 3.74673 -2.81131 23.4269
607 1 -1.1104 3.93517 2.75236 23.6767
608 2 2.2208 2.42814 1.36789 24.8257
609 1 -1.1104 3.7109 -2.77449 26.2876
610 1 -1.1104 3.94864 2.80508 26.4703
611 2 2.2208 2.37426 -1.39729 22.0645
612 2 2.2208 2.49261 4.2888 22.2424
613 1 -1.1104 3.73623 0.0112694 23.4512
614 1 -1.1104 3.83911 -0.00911589 26.1713
400 1 -1.1104 6.58954 2.87839 20.7711
605 1 -1.1104 6.5449 -0.0111531 26.4136
408 1 -1.1104 6.67846 0.0696309 20.7738
598 1 -1.1104 6.55206 -2.71557 26.3181
594 1 -1.1104 6.48881 -2.79149 23.4915
398 1 -1.1104 6.49544 -2.70583 20.8316
599 1 -1.1104 6.4901 2.86412 26.315
334 2 2.2208 -0.300294 -1.43569 13.6687
442 1 -1.1104 12.3116 -0.0122791 20.7355
435 1 -1.1104 12.2377 -2.79374 20.6583
447 1 -1.1104 9.38871 -2.83953 20.7585
437 1 -1.1104 12.1551 2.87564 20.7233
526 2 2.2208 10.8641 20.9809 24.9572
601 1 -1.1104 6.63921 0.11111 23.4771
595 1 -1.1104 6.73372 2.95759 23.484
454 1 -1.1104 9.51994 -0.0401621 20.5792
449 1 -1.1104 9.39405 2.8232 20.7937
627 2 2.2208 10.836 1.37928 22.1729
628 1 -1.1104 12.0461 -2.92761 23.4146
629 1 -1.1104 12.3162 2.68774 23.641
630 1 -1.1104 12.2462 -2.72406 26.2462
631 1 -1.1104 12.1622 2.75883 26.4611
632 1 -1.1104 12.2174 -0.0850507 23.6747
633 2 2.2208 10.6844 -1.35938 25.0558
635 1 -1.1104 12.2452 -0.0168207 26.4973
636 1 -1.1104 9.25846 -2.69078 23.5754
637 1 -1.1104 9.53012 2.79181 23.6914
638 2 2.2208 7.91357 1.47817 24.9848
639 1 -1.1104 9.45194 -2.68903 26.4412
640 1 -1.1104 9.34593 2.89249 26.3783
641 2 2.2208 7.97323 -1.395 22.1158
642 2 2.2208 8.09712 4.22067 22.1302
643 1 -1.1104 9.34633 -0.0124746 23.5494
644 1 -1.1104 9.33598 0.162633 26.3531
634 2 2.2208 10.8466 4.14025 24.9541
499 1 -1.1104 12.3409 19.6684 26.3275
478 1 -1.1104 1.06714 5.74147 20.7483
489 1 -1.1104 3.95235 8.43611 20.6935
469 1 -1.1104 1.15531 8.47563 20.4943
482 1 -1.1104 6.65851 5.70625 20.6397
471 1 -1.1104 6.89281 8.38429 20.6236
480 1 -1.1104 1.15107 11.2343 20.7096
494 1 -1.1104 3.9902 5.58426 20.703
496 1 -1.1104 3.91436 11.1705 20.6153
656 2 2.2208 5.22179 6.96392 22.039
657 2 2.2208 5.30305 12.5576 22.0187
658 1 -1.1104 1.18675 8.45435 23.4607
660 1 -1.1104 0.996343 8.44343 26.361
662 1 -1.1104 1.03016 5.7596 23.499
663 1 -1.1104 0.956905 11.2032 23.5059
666 2 2.2208 5.25979 9.78097 24.882
667 1 -1.1104 0.969219 5.61908 26.2684
668 1 -1.1104 0.966346 11.3065 26.2934
671 1 -1.1104 3.90063 8.53236 23.4532
672 2 2.2208 2.39306 7.11585 24.8995
673 2 2.2208 2.46367 12.6119 24.9434
674 1 -1.1104 3.75962 8.42839 26.3054
675 2 2.2208 2.41822 9.80921 22.053
676 1 -1.1104 3.73767 5.57005 23.5798
677 1 -1.1104 3.8638 11.2643 23.3782
678 1 -1.1104 3.86321 5.6681 26.4433
679 1 -1.1104 3.74209 11.2467 26.2289
484 1 -1.1104 6.66659 11.1871 20.6967
661 1 -1.1104 6.74215 8.38734 26.2631
664 1 -1.1104 6.69696 5.64124 23.5195
669 1 -1.1104 6.5983 5.67683 26.4313
670 1 -1.1104 6.47916 11.0592 26.4387
338 2 2.2208 5.28891 -1.4627 13.8029
685 2 2.2208 -0.293932 12.6068 21.935
462 2 2.2208 10.9107 18.2618 22.2022
625 2 2.2208 -0.254083 1.46017 22.0676
659 1 -1.1104 6.69749 8.33735 23.4189
665 1 -1.1104 6.59254 11.1018 23.5602
523 1 -1.1104 9.59442 11.3069 20.6911
509 1 -1.1104 12.3945 5.65384 20.4992
504 1 -1.1104 12.2043 8.39153 20.7767
521 1 -1.1104 9.6776 5.635 20.6563
511 1 -1.1104 12.2989 11.2582 20.8335
687 1 -1.1104 9.36464 11.1828 26.2582
688 1 -1.1104 9.27112 5.63779 26.2447
689 1 -1.1104 9.37533 11.1008 23.3534
690 1 -1.1104 9.42898 5.63422 23.3748
691 2 2.2208 8.12111 9.70572 22.0463
692 1 -1.1104 9.44793 8.33481 26.5064
693 2 2.2208 7.90696 12.6294 24.8259
694 2 2.2208 8.06381 7.04615 24.9365
695 2 2.2208 10.7981 7.1081 22.1173
696 2 2.2208 10.876 12.6655 22.109
697 1 -1.1104 12.3187 8.50904 23.5633
698 1 -1.1104 12.2132 8.35148 26.2952
699 1 -1.1104 12.1699 5.73135 23.4432
700 1 -1.1104 12.133 11.3435 23.5765
701 2 2.2208 10.8624 9.83057 24.8492
702 1 -1.1104 12.1667 5.6486 26.2387
703 1 -1.1104 12.231 11.2986 26.5184
704 1 -1.1104 9.37613 8.39177 23.588
622 2 2.2208 -0.216281 9.91095 19.2157
498 1 -1.1104 12.3277 14.0234 26.2669
616 2 2.2208 7.98248 21.0572 22.0709
709 1 -1.1104 6.60968 14.1573 23.3883
588 1 -1.1104 6.62435 19.6171 26.2575
718 1 -1.1104 6.61622 19.6757 23.4943
554 1 -1.1104 3.92663 19.7349 20.6825
545 1 -1.1104 1.07474 16.7393 20.6441
719 2 2.2208 5.38201 21.2198 24.8758
717 1 -1.1104 1.1186 14.1239 26.2253
720 2 2.2208 5.20161 15.46 24.7785
647 2 2.2208 2.47412 15.3868 22.0546
649 2 2.2208 2.54979 21.118 22.0838
652 1 -1.1104 3.83399 16.7154 23.3598
655 1 -1.1104 1.01533 16.7988 23.4187
681 1 -1.1104 3.95387 14.0834 26.3754
682 1 -1.1104 3.89035 16.8285 26.3759
683 2 2.2208 2.45329 18.2602 24.941
686 1 -1.1104 3.89836 19.5646 26.2703
705 2 2.2208 5.23288 18.1958 22.1023
706 1 -1.1104 0.986179 13.9855 23.5585
707 1 -1.1104 0.982668 19.5166 23.6746
711 1 -1.1104 3.83841 19.7216 23.4515
713 1 -1.1104 3.88219 13.9808 23.5045
715 1 -1.1104 1.22845 19.7208 26.4336
716 1 -1.1104 1.07394 16.8548 26.2824
680 1 -1.1104 6.63005 16.9299 23.4543
547 1 -1.1104 6.68864 16.8411 20.7441
712 1 -1.1104 6.77661 14.044 26.1818
714 1 -1.1104 6.69307 16.864 26.2046
590 1 -1.1104 9.52412 19.72 26.3483
524 1 -1.1104 12.4343 16.8666 23.4372
615 2 2.2208 8.14334 15.4486 21.9194
561 1 -1.1104 9.3177 13.9676 23.6004
587 2 2.2208 8.14198 18.1773 24.813
463 1 -1.1104 12.3076 14.1337 23.4924
567 1 -1.1104 12.3166 13.9793 20.6896
620 1 -1.1104 9.4847 16.967 26.0948
525 2 2.2208 10.9523 15.4399 24.7592
560 1 -1.1104 12.3207 16.925 26.106
497 1 -1.1104 12.267 19.6254 23.6855
562 1 -1.1104 9.46397 19.5636 23.5736
589 1 -1.1104 9.56144 14.0072 26.2963
387 2 2.2208 13.6963 9.90282 27.7227
359 2 2.2208 5.35649 15.4636 13.7814
385 2 2.2208 8.05612 9.73939 27.7551
353 2 2.2208 2.55355 12.6501 13.5748
348 2 2.2208 10.8411 18.2656 27.4767
386 2 2.2208 10.7816 12.7013 27.7108
381 2 2.2208 5.24162 12.6447 27.7923
347 2 2.2208 8.02094 15.3731 27.5763
357 2 2.2208 2.45829 18.1817 13.6267
336 2 2.2208 13.8793 7.15659 13.7209
721 2 2.2208 5.37339 23.9266 5.29148
722 2 2.2208 5.34566 29.3584 5.13457
723 1 -1.1104 1.08922 25.2479 0.926858
724 1 -1.1104 1.11707 25.4199 3.71445
725 1 -1.1104 0.998627 22.4768 1.02867
726 1 -1.1104 1.20927 28.1984 1.10084
727 2 2.2208 5.23055 26.6416 2.41493
728 1 -1.1104 1.14437 22.6201 3.83806
729 1 -1.1104 1.10692 28.1385 3.95599
730 1 -1.1104 3.88445 25.2166 1.12595
731 2 2.2208 2.53283 23.8567 2.39636
732 2 2.2208 2.33127 29.5562 2.47675
733 1 -1.1104 3.87584 25.2547 3.90955
734 2 2.2208 2.46051 26.6542 5.1893
735 1 -1.1104 3.7165 22.3196 1.1667
736 1 -1.1104 4.00461 28.1341 0.965022
737 1 -1.1104 3.88535 22.3885 3.86238
738 1 -1.1104 3.90051 28.0626 3.86464
746 1 -1.1104 6.55114 22.5273 3.88554
744 1 -1.1104 6.65445 22.3993 1.10301
1646 1 -1.1104 12.4665 47.7512 12.2789
870 1 -1.1104 3.77457 28.0127 6.65758
865 1 -1.1104 1.01633 27.9396 6.7316
869 1 -1.1104 3.89248 22.3535 6.70619
839 2 2.2208 -0.196168 40.7214 5.38543
742 1 -1.1104 6.51057 25.208 1.05078
747 1 -1.1104 6.56183 28.0901 3.71283
743 1 -1.1104 6.71153 25.3955 3.94363
745 1 -1.1104 6.71989 27.9135 1.08397
748 2 2.2208 10.8299 23.8759 5.1315
749 2 2.2208 10.859 29.4254 5.26028
750 1 -1.1104 12.1775 25.2995 1.06492
751 1 -1.1104 12.3556 25.3145 3.85854
752 1 -1.1104 12.3721 22.5475 0.953311
753 1 -1.1104 12.4139 27.9852 1.03339
754 2 2.2208 10.8674 26.7995 2.44146
755 1 -1.1104 12.1902 22.4355 3.78816
756 1 -1.1104 12.272 28.0689 3.85402
757 1 -1.1104 9.36082 25.276 0.988734
758 2 2.2208 8.05833 23.9235 2.59144
759 2 2.2208 8.11183 29.509 2.46074
760 1 -1.1104 9.53164 25.1828 3.86853
761 2 2.2208 8.08162 26.5459 5.28409
762 1 -1.1104 9.48372 22.4578 1.03274
763 1 -1.1104 9.54913 28.2326 0.99308
764 1 -1.1104 9.40424 22.3249 3.94834
765 1 -1.1104 9.3347 27.9763 3.72841
863 1 -1.1104 6.68126 25.2928 6.61773
866 1 -1.1104 6.85124 22.5003 6.55699
867 1 -1.1104 6.5929 28.0382 6.60515
900 1 -1.1104 9.52813 27.9918 6.54424
895 1 -1.1104 12.1857 25.2595 6.73895
1022 1 -1.1104 12.3249 44.8151 6.77673
792 2 2.2208 -0.236148 37.7935 2.46708
1034 2 2.2208 13.7315 23.8003 7.98816
790 2 2.2208 -0.259758 35.0824 5.34856
769 2 2.2208 5.34013 35.2089 5.06157
770 1 -1.1104 0.962801 30.8504 1.09379
771 1 -1.1104 1.08707 36.4521 0.974495
773 1 -1.1104 0.914456 30.8404 3.88676
774 1 -1.1104 1.20812 36.6696 3.75168
776 1 -1.1104 1.0998 33.6245 0.965999
777 2 2.2208 5.24506 32.3588 2.51815
778 2 2.2208 5.45375 37.9062 2.50323
779 1 -1.1104 1.13779 33.6734 3.75101
781 1 -1.1104 3.82213 30.922 1.07875
782 1 -1.1104 3.8212 36.49 1.20068
783 2 2.2208 2.50816 35.0889 2.41205
784 1 -1.1104 3.61743 30.9257 3.85331
785 1 -1.1104 3.82769 36.5445 3.79701
786 2 2.2208 2.44942 32.2474 5.30659
787 2 2.2208 2.52499 37.9358 5.20429
788 1 -1.1104 3.81146 33.6251 1.06617
789 1 -1.1104 4.06215 33.7261 3.66706
780 1 -1.1104 6.69593 33.5564 3.68289
841 2 2.2208 -0.341725 43.4971 2.41648
768 2 2.2208 13.7163 26.7015 5.25979
775 1 -1.1104 6.70822 36.4079 3.74772
923 1 -1.1104 1.05338 33.5589 6.58693
919 1 -1.1104 0.8942 30.7368 6.77866
924 1 -1.1104 6.44926 33.6075 6.46906
926 1 -1.1104 3.85893 36.2589 6.65116
927 1 -1.1104 3.77104 33.6339 6.44435
1064 2 2.2208 13.5766 23.8653 13.5837
739 2 2.2208 -0.263049 26.7632 2.4108
794 1 -1.1104 6.61726 30.7889 3.84895
795 1 -1.1104 6.73984 33.8079 1.07345
772 1 -1.1104 6.79225 36.4401 0.891759
793 1 -1.1104 6.76192 30.9715 0.901047
796 2 2.2208 10.9009 35.2182 5.45737
797 1 -1.1104 12.2307 30.7925 0.998382
798 1 -1.1104 12.3706 36.6877 1.0097
799 1 -1.1104 12.3278 30.719 3.98499
800 1 -1.1104 12.2448 36.5598 4.05201
801 1 -1.1104 12.4338 33.8164 1.04275
802 2 2.2208 10.9478 32.24 2.58331
803 2 2.2208 10.9369 37.8818 2.54278
804 1 -1.1104 12.2346 33.7272 3.9454
805 1 -1.1104 9.53517 30.8383 0.960223
806 1 -1.1104 9.51766 36.4134 1.03751
807 2 2.2208 8.20907 35.0118 2.45804
808 1 -1.1104 9.52963 30.8058 3.772
809 1 -1.1104 9.44309 36.3198 3.88713
810 2 2.2208 8.02969 32.3503 5.24515
811 2 2.2208 8.12163 37.8941 5.38552
812 1 -1.1104 9.57035 33.5635 1.14469