ITEM: TIMESTEP
20000
ITEM: NUMBER OF ATOMS
17670
ITEM: BOX BOUNDS pp pp pp
-3.5008801872798284e-01 2.7690088018728041e+01
-4.3642071444815107e+00 3.3244420714448046e+02
-3.5615293157350530e-01 2.7696152931573479e+01
ITEM: ATOMS id type q x y z
1 2 2.2208 5.18488 1.35731 5.32589
2 1 -1.1104 1.12519 -3.12468 1.05898
3 1 -1.1104 1.11513 2.57225 1.05613
6 1 -1.1104 1.19307 -2.76914 3.87933
7 1 -1.1104 1.00297 2.85442 3.84713
10 1 -1.1104 1.06086 -0.272457 1.06989
12 2 2.2208 5.13693 -1.59679 2.59163
13 2 2.2208 5.31441 4.10916 2.50853
14 1 -1.1104 0.971735 0.0377745 3.69129
16 1 -1.1104 3.88959 -2.87409 1.06775
17 1 -1.1104 3.84601 2.72314 1.10618
18 2 2.2208 2.53247 1.29302 2.39471
19 1 -1.1104 3.786 -2.822 3.89942
20 1 -1.1104 3.94005 2.54235 3.85923
21 2 2.2208 2.51105 -1.52823 5.27885
22 2 2.2208 2.43928 4.04359 5.17239
23 1 -1.1104 3.81547 -0.0831648 1.01337
24 1 -1.1104 3.83408 -0.107769 4.05933
362 2 2.2208 8.10529 18.0087 13.7732
25 2 2.2208 -0.33386 -1.5237 2.37777
53 2 2.2208 13.666 12.405 8.20348
11 1 -1.1104 6.45276 -0.182039 1.20646
15 1 -1.1104 6.56933 -0.146739 3.90241
49 2 2.2208 13.7157 1.30019 2.38505
30 2 2.2208 -0.33546 9.69192 7.95577
166 1 -1.1104 1.1377 -2.99756 6.65439
172 1 -1.1104 3.94301 -2.99591 6.7376
369 2 2.2208 10.8598 1.30465 -0.325986
9008 2 2.2208 10.7949 -4.24011 -0.256145
9 1 -1.1104 6.69743 2.67098 4.01251
4 1 -1.1104 6.73173 -3.00424 1.07943
29 2 2.2208 -0.332143 6.92668 10.8842
8 1 -1.1104 6.622 -2.94296 3.81801
5 1 -1.1104 6.75823 2.6511 1.00678
31 2 2.2208 10.8504 1.28618 5.15286
32 1 -1.1104 12.2485 -3.01669 1.04567
33 1 -1.1104 12.3251 2.74536 1.11469
34 1 -1.1104 12.1606 -2.79572 3.75844
35 1 -1.1104 12.3347 2.68771 3.88382
36 1 -1.1104 12.1277 -0.0958268 0.994486
37 2 2.2208 10.8043 -1.5384 2.4868
39 1 -1.1104 12.3075 -0.0597452 3.77401
40 1 -1.1104 9.51096 -2.8284 1.11218
41 1 -1.1104 9.54052 2.79556 1.10778
42 2 2.2208 7.98993 1.25835 2.59544
43 1 -1.1104 9.47757 -3.00126 3.73712
44 1 -1.1104 9.46723 2.60095 4.01564
45 2 2.2208 8.04906 -1.57204 5.39451
46 2 2.2208 8.12919 4.02709 5.34039
47 1 -1.1104 9.40866 -0.135517 1.08684
48 1 -1.1104 9.2046 -0.286152 3.9005
38 2 2.2208 10.9048 4.06405 2.51477
8995 2 2.2208 -0.252631 -4.33273 5.30476
370 2 2.2208 8.03775 -1.56241 -0.276161
8994 2 2.2208 5.34181 -4.39423 5.28475
206 1 -1.1104 12.2956 2.61906 6.60686
205 1 -1.1104 12.3368 -2.95149 6.68925
210 1 -1.1104 9.3809 -0.140513 6.69903
28 2 2.2208 13.7591 20.7908 10.8041
289 1 -1.1104 6.74966 16.6928 9.41384
26 2 2.2208 -0.435677 1.33422 5.18484
232 2 2.2208 13.6857 9.65186 5.24631
54 2 2.2208 5.22104 6.82571 5.2796
55 2 2.2208 5.16089 12.4291 5.19466
56 1 -1.1104 1.09407 8.4731 0.94501
58 1 -1.1104 0.934765 8.36309 3.82452
60 1 -1.1104 1.11748 5.67553 1.27264
61 1 -1.1104 1.03829 11.1774 1.20905
66 2 2.2208 5.30927 9.55964 2.5193
67 1 -1.1104 1.19211 5.55324 3.92258
68 1 -1.1104 1.01771 11.0627 3.76312
71 1 -1.1104 3.89884 8.20932 1.19488
72 2 2.2208 2.41028 6.98137 2.58588
73 2 2.2208 2.39169 12.4725 2.46069
74 1 -1.1104 3.85123 8.21263 3.91346
75 2 2.2208 2.54018 9.67264 5.26778
76 1 -1.1104 3.86847 5.43557 1.11373
77 1 -1.1104 3.94233 11.0882 1.12957
79 1 -1.1104 3.83907 5.40947 3.91503
80 1 -1.1104 3.79011 11.0397 3.84806
57 1 -1.1104 6.65288 8.1698 1.13181
137 2 2.2208 -0.281328 18.0533 5.30283
63 1 -1.1104 6.63006 5.42805 1.0706
70 1 -1.1104 6.69007 10.9481 3.85148
59 1 -1.1104 6.8067 8.22899 3.90636
328 1 -1.1104 12.157 13.8592 9.53588
313 2 2.2208 -0.262423 15.2675 8.09402
204 2 2.2208 13.5523 15.2458 5.41477
384 2 2.2208 10.9289 6.95215 -0.37534
69 1 -1.1104 6.79558 5.48845 3.96321
64 1 -1.1104 6.74968 10.9731 1.1772
84 2 2.2208 10.9324 6.98233 5.29315
85 2 2.2208 10.8859 12.4109 5.26752
86 1 -1.1104 12.3645 8.45806 1.14928
87 1 -1.1104 12.3199 8.11574 3.95166
88 1 -1.1104 12.1958 5.49056 1.19368
89 1 -1.1104 12.3059 11.2691 0.93214
91 2 2.2208 10.8421 9.6981 2.38386
92 1 -1.1104 12.3139 5.34399 3.83514
93 1 -1.1104 12.2728 10.8989 3.85383
94 1 -1.1104 9.41813 8.37557 1.02567
95 2 2.2208 8.08661 6.89581 2.46207
96 2 2.2208 8.15201 12.423 2.50416
97 1 -1.1104 9.4843 8.38678 3.84097
98 2 2.2208 8.10746 9.63883 5.22627
99 1 -1.1104 9.4438 5.58746 1.07252
100 1 -1.1104 9.58386 11.0749 1.04264
102 1 -1.1104 9.50157 5.48007 3.79917
103 1 -1.1104 9.46762 11.0717 3.87283
81 2 2.2208 -0.339625 6.99975 5.26588
332 2 2.2208 13.6969 17.9748 8.0324
9001 2 2.2208 -0.245636 -4.40075 10.9666
269 1 -1.1104 9.50098 5.50236 6.73167
319 1 -1.1104 9.39817 13.7524 9.45145
385 2 2.2208 7.96897 9.6122 -0.333781
106 2 2.2208 5.19188 18.0795 5.26239
107 1 -1.1104 1.0306 13.8453 1.07067
109 1 -1.1104 0.875142 19.2911 1.07442
113 1 -1.1104 0.967113 13.9657 3.85425
114 1 -1.1104 0.969992 19.5383 3.86063
116 1 -1.1104 1.08315 16.675 1.03474
119 2 2.2208 5.20847 15.2757 2.38208
120 2 2.2208 5.2211 20.9434 2.33224
121 1 -1.1104 1.07538 16.6873 3.89433
123 1 -1.1104 3.79697 13.7897 1.01049
125 1 -1.1104 3.83261 19.4892 1.01636
127 2 2.2208 2.35072 18.162 2.49207
128 1 -1.1104 3.87458 13.8641 3.82292
129 1 -1.1104 3.70525 19.5483 3.88391
130 2 2.2208 2.45098 15.2859 5.16058
131 2 2.2208 2.30269 20.7815 5.23393
132 1 -1.1104 3.68073 16.6182 0.832695
134 1 -1.1104 3.64497 16.737 3.68889
139 1 -1.1104 6.6415 19.5077 3.75149
110 1 -1.1104 6.5195 13.8189 1.15658
138 1 -1.1104 6.61843 19.5064 0.954744
315 1 -1.1104 9.39957 16.5224 12.1856
320 2 2.2208 7.95192 18.2073 7.93619
200 2 2.2208 -0.242808 -1.59659 8.01295
202 2 2.2208 13.734 7.00714 8.002
380 2 2.2208 2.48445 9.68819 -0.303848
140 1 -1.1104 6.55351 16.6216 1.10746
357 2 2.2208 2.50675 18.0108 13.6767
115 1 -1.1104 6.67487 13.8914 4.01742
122 1 -1.1104 6.56149 16.7379 3.86466
141 2 2.2208 10.7462 18.0856 5.32646
142 1 -1.1104 12.2014 13.8718 1.08435
144 1 -1.1104 12.3423 19.2717 1.09609
146 1 -1.1104 12.2567 13.8029 4.02033
147 1 -1.1104 12.2847 19.2425 3.98482
148 1 -1.1104 12.3003 16.6316 1.09169
150 2 2.2208 10.7812 15.2543 2.36619
151 2 2.2208 10.766 20.8106 2.40435
152 1 -1.1104 12.1128 16.6003 3.77096
153 1 -1.1104 9.33289 13.8576 1.07796
155 1 -1.1104 9.3943 19.3969 0.996561
157 2 2.2208 8.01745 18.0874 2.37489
158 1 -1.1104 9.33082 14.0237 3.80554
159 1 -1.1104 9.47655 19.4057 3.75009
160 2 2.2208 7.97422 15.2786 5.16627
161 2 2.2208 8.06575 20.958 5.10403
162 1 -1.1104 9.34869 16.5763 0.943283
164 1 -1.1104 9.28393 16.6573 3.87379
156 1 -1.1104 9.31069 19.5109 6.46083
326 1 -1.1104 12.1424 16.794 12.2859
325 2 2.2208 10.7109 15.2391 8.07471
149 1 -1.1104 12.1428 16.8136 6.57809
104 2 2.2208 13.6933 12.5793 2.48863
174 1 -1.1104 3.74386 -0.138709 6.78236
173 1 -1.1104 4.01512 2.74629 6.79603
167 1 -1.1104 1.07246 2.63684 6.75725
170 1 -1.1104 0.868158 -0.119479 6.62685
175 2 2.2208 5.17263 1.17162 11.0024
176 1 -1.1104 1.17336 -2.77535 12.3471
177 1 -1.1104 1.00043 2.84204 12.1022
180 1 -1.1104 1.11916 -3.10309 9.43584
181 1 -1.1104 0.994601 2.7815 9.39048
184 1 -1.1104 1.13115 -0.032565 12.2751
186 2 2.2208 5.21156 -1.46091 8.16067
187 2 2.2208 5.39798 4.10554 8.11037
188 1 -1.1104 1.25461 -0.280245 9.28073
190 1 -1.1104 4.02626 -3.10725 12.2249
191 1 -1.1104 3.93541 2.58478 12.2645
192 2 2.2208 2.43154 1.36075 8.0517
193 1 -1.1104 3.85416 -3.04149 9.50134
194 1 -1.1104 3.7835 2.66263 9.39184
195 2 2.2208 2.4756 -1.63877 10.885
196 2 2.2208 2.39994 4.07833 10.6924
197 1 -1.1104 3.85888 -0.249354 12.3712
198 1 -1.1104 3.93687 -0.156901 9.64892
178 1 -1.1104 6.84304 -3.13206 12.3707
327 1 -1.1104 12.2548 19.2736 9.30958
379 2 2.2208 5.1766 6.80012 -0.208916
231 2 2.2208 13.7501 20.808 5.24089
372 2 2.2208 8.11895 3.96616 -0.309146
333 2 2.2208 13.6134 15.1806 10.8136
185 1 -1.1104 6.75815 -0.10478 12.1952
183 1 -1.1104 6.6628 2.57848 9.58777
171 1 -1.1104 6.51434 -0.0111959 6.73506
179 1 -1.1104 6.75449 2.77411 12.4769
169 1 -1.1104 6.70952 2.63486 6.79589
209 1 -1.1104 9.63315 2.66782 6.88048
168 1 -1.1104 6.72371 -2.99068 6.83242
189 1 -1.1104 6.75705 -0.208477 9.37721
182 1 -1.1104 6.6706 -3.00464 9.47757
207 1 -1.1104 12.2205 -0.205393 6.60379
208 1 -1.1104 9.55758 -2.94912 6.71356
211 2 2.2208 11.0082 1.22136 10.8527
212 1 -1.1104 12.3552 -2.89978 12.3123
213 1 -1.1104 12.2558 2.86618 12.3349
214 1 -1.1104 12.4 -2.8377 9.58226
215 1 -1.1104 12.464 2.73688 9.55499
216 1 -1.1104 12.3517 -0.154579 12.337
217 2 2.2208 10.9716 -1.57924 7.94865
218 2 2.2208 10.8614 4.01997 8.24019
219 1 -1.1104 12.3839 -0.0655734 9.40215
220 1 -1.1104 9.52326 -2.91061 12.2621
221 1 -1.1104 9.52676 2.66997 12.2865
222 2 2.2208 8.18044 1.27984 8.17122
223 1 -1.1104 9.463 -3.0114 9.46291
224 1 -1.1104 9.44527 2.66953 9.63733
225 2 2.2208 8.11158 -1.61329 10.8619
226 2 2.2208 8.02723 4.0036 10.932
227 1 -1.1104 9.62529 -0.163709 12.301
228 1 -1.1104 9.61049 -0.124303 9.43875
323 1 -1.1104 12.2895 16.5461 9.39517
236 1 -1.1104 0.950548 5.49306 6.62369
239 1 -1.1104 3.83814 5.45813 6.73661
238 1 -1.1104 3.98642 8.32019 6.71603
62 1 -1.1104 1.16034 11.0036 6.63311
234 1 -1.1104 1.21713 8.27295 6.64729
78 1 -1.1104 3.80213 11.0806 6.67134
240 2 2.2208 5.25105 6.85909 10.8612
241 2 2.2208 5.26833 12.7044 11.0269
242 1 -1.1104 1.10365 8.25218 12.2324
244 1 -1.1104 1.21698 8.31892 9.47392
246 1 -1.1104 0.999241 5.58812 12.2672
247 1 -1.1104 1.06532 11.1041 12.212
250 2 2.2208 5.33694 9.64657 8.01487
251 1 -1.1104 0.895357 5.49351 9.39941
252 1 -1.1104 0.991845 11.0833 9.43379
255 1 -1.1104 3.83754 8.34939 12.3467
256 2 2.2208 2.5375 6.83573 8.15204
257 2 2.2208 2.46864 12.4493 8.16658
258 1 -1.1104 4.01683 8.29751 9.52628
259 2 2.2208 2.58556 9.68653 10.8769
260 1 -1.1104 3.90869 5.41915 12.2755
261 1 -1.1104 3.83574 11.1061 12.426
262 1 -1.1104 3.84636 5.44119 9.55176
263 1 -1.1104 3.83017 11.0657 9.43036
237 1 -1.1104 6.64785 5.39028 6.7088
316 2 2.2208 8.0309 20.8931 10.8035
329 1 -1.1104 12.2283 19.6503 12.2695
163 1 -1.1104 9.25854 16.8944 6.68615
248 1 -1.1104 6.63203 5.4613 12.308
243 1 -1.1104 6.54756 8.25929 12.3491
249 1 -1.1104 6.7746 11.0467 12.2945
235 1 -1.1104 6.64893 8.29725 6.6585
245 1 -1.1104 6.81073 8.0522 9.53777
90 1 -1.1104 12.2948 10.9671 6.69334
265 1 -1.1104 12.2561 8.21696 6.64217
253 1 -1.1104 6.75167 5.35535 9.51548
65 1 -1.1104 6.60415 11.1452 6.70461
101 1 -1.1104 9.36031 10.985 6.82576
254 1 -1.1104 6.59239 10.9808 9.51909
266 1 -1.1104 12.2173 5.44468 6.6735
267 1 -1.1104 9.51404 8.13741 6.75345
264 1 -1.1104 9.35623 10.982 9.52695
268 1 -1.1104 9.42584 5.59936 9.52604
270 1 -1.1104 9.38682 11.1151 12.387
271 1 -1.1104 9.57958 5.54034 12.4308
272 2 2.2208 8.11769 9.64987 10.9348
273 1 -1.1104 9.56237 8.38979 9.6438
274 2 2.2208 8.00998 12.4251 8.12526
275 2 2.2208 8.1381 6.78578 7.98649
276 2 2.2208 10.8906 6.94136 10.9713
277 2 2.2208 10.7965 12.408 10.8484
278 1 -1.1104 12.3651 8.37876 12.5088
279 1 -1.1104 12.3916 8.25698 9.62379
280 1 -1.1104 12.2618 5.608 12.398
281 1 -1.1104 12.2745 11.0533 12.2382
282 2 2.2208 10.9759 9.53602 8.2065
283 1 -1.1104 12.1492 5.49408 9.62602
284 1 -1.1104 12.2219 11.0857 9.5794
285 1 -1.1104 9.39648 8.34907 12.5167
338 2 2.2208 5.44022 -1.59577 13.7303
111 1 -1.1104 6.62664 13.7464 6.76643
306 1 -1.1104 6.60055 16.5383 12.2737
108 1 -1.1104 1.03846 13.8528 6.62697
126 1 -1.1104 3.80289 19.4327 6.55518
302 1 -1.1104 1.19326 19.4778 6.78923
133 1 -1.1104 3.79556 16.5582 6.54238
117 1 -1.1104 1.04079 16.7535 6.74741
124 1 -1.1104 3.70639 13.9185 6.62346
310 2 2.2208 2.49746 15.2449 10.8537
305 1 -1.1104 3.92212 13.9369 9.47288
309 2 2.2208 2.44722 20.8116 10.8926
301 1 -1.1104 3.91438 19.4862 9.43915
304 1 -1.1104 3.91912 16.6857 9.40773
298 1 -1.1104 1.04851 19.4041 12.3961
295 2 2.2208 5.23633 15.2691 8.01458
300 2 2.2208 5.3681 18.1164 10.7235
308 1 -1.1104 3.94144 16.6255 12.1718
307 1 -1.1104 1.03851 16.7256 12.3472
299 1 -1.1104 1.01787 13.9554 12.3102
303 2 2.2208 2.32998 18.0908 8.11581
286 1 -1.1104 3.75228 19.2977 12.2328
287 1 -1.1104 3.69603 13.9335 12.4469
291 1 -1.1104 1.05799 19.4042 9.54295
292 1 -1.1104 1.00699 16.5872 9.51021
293 2 2.2208 5.08415 20.8813 7.98299
294 1 -1.1104 1.16082 13.8667 9.48681
145 1 -1.1104 12.301 19.4538 6.65299
288 1 -1.1104 6.7542 19.5823 9.41321
317 2 2.2208 7.96154 15.2967 10.8623
330 1 -1.1104 12.1937 13.9317 12.2787
324 2 2.2208 10.8367 20.7887 8.09998
331 2 2.2208 10.8065 18.0512 10.7629
321 1 -1.1104 9.42011 19.3603 12.1991
143 1 -1.1104 12.3164 13.9181 6.8982
318 1 -1.1104 9.52096 19.4015 9.32756
322 1 -1.1104 9.4445 13.7342 12.1989
314 1 -1.1104 9.35712 16.6409 9.46943
296 1 -1.1104 6.58726 19.2986 12.2509
297 1 -1.1104 6.5801 13.9931 12.369
290 1 -1.1104 6.69786 13.8021 9.51917
112 1 -1.1104 6.53287 19.5117 6.53143
118 1 -1.1104 6.60771 16.6115 6.65492
154 1 -1.1104 9.44561 13.9379 6.55727
335 2 2.2208 -0.246371 20.8435 13.56
377 2 2.2208 13.5618 -1.50819 -0.251194
358 2 2.2208 5.19405 20.8061 13.5681
350 2 2.2208 10.9205 4.09616 13.6152
337 2 2.2208 -0.478748 4.04571 13.5511
367 2 2.2208 -0.336891 9.75556 13.6676
346 2 2.2208 10.8639 -1.61546 13.6399
366 2 2.2208 2.45918 4.1726 -0.188998
368 2 2.2208 -0.330138 1.203 -0.334909
352 2 2.2208 5.31117 9.78237 13.6691
345 2 2.2208 13.6236 20.7241 -0.392563
361 2 2.2208 10.9485 15.2553 13.6804
344 2 2.2208 13.5955 15.2997 -0.308149
341 2 2.2208 5.2168 4.12671 13.6622
347 2 2.2208 7.90993 15.2463 -0.268208
351 2 2.2208 2.48886 7.00376 13.5766
343 2 2.2208 8.16377 1.35009 13.7366
374 2 2.2208 5.17887 18.0366 -0.35745
388 2 2.2208 5.38403 1.21919 16.3851
389 1 -1.1104 1.09673 -3.01598 17.8497
390 1 -1.1104 1.00312 2.61991 17.7811
393 1 -1.1104 1.16484 -3.06203 15.0967
395 1 -1.1104 1.07163 2.69751 14.9529
401 1 -1.1104 0.93436 -0.161076 17.7756
403 2 2.2208 5.39412 -1.49844 19.3034
404 2 2.2208 5.13722 4.07579 19.2556
405 1 -1.1104 1.06173 -0.234466 14.9611
409 1 -1.1104 3.88585 -2.90225 17.685
410 1 -1.1104 3.84991 2.67421 17.8267
411 2 2.2208 2.3892 1.18823 19.2142
412 1 -1.1104 4.00346 -2.98557 14.9888
414 1 -1.1104 3.86611 2.64961 15.0928
416 2 2.2208 2.52169 -1.60746 16.4429
417 2 2.2208 2.37766 4.13679 16.4077
418 1 -1.1104 3.71614 -0.225045 17.9587
419 1 -1.1104 3.80399 -0.0959179 15.1304
624 2 2.2208 -0.354571 -1.565 24.8776
9093 2 2.2208 5.24601 -4.30032 22.0299
392 1 -1.1104 6.56741 2.67463 17.8398
684 2 2.2208 -0.485813 9.61105 24.926
342 2 2.2208 -0.378973 15.2628 13.6058
9159 2 2.2208 5.35362 -4.35864 16.4768
420 1 -1.1104 3.9486 -0.131836 20.7849
413 1 -1.1104 3.78168 -2.84211 20.5277
406 1 -1.1104 1.0365 -0.0852645 20.6644
353 2 2.2208 2.43537 12.5042 13.7333
334 2 2.2208 -0.370766 -1.41963 13.6642
9090 2 2.2208 10.8228 -4.2928 22.1865
399 1 -1.1104 6.6718 2.77261 15.0489
402 1 -1.1104 6.72768 -0.0522171 17.7966
391 1 -1.1104 6.69907 -2.98443 17.9931
459 2 2.2208 13.5962 -1.59297 16.4152
407 1 -1.1104 6.63522 -0.11401 15.0704
365 2 2.2208 2.52306 -1.72369 27.6742
397 1 -1.1104 6.76586 -2.94861 15.0824
431 2 2.2208 10.8156 1.24958 16.5149
432 1 -1.1104 12.1924 -2.98557 17.9293
433 1 -1.1104 12.3642 2.49342 17.8364
434 1 -1.1104 12.2538 -3.15133 15.1498
436 1 -1.1104 12.3009 2.76074 15.0527
438 1 -1.1104 12.4018 -0.176027 17.9568
439 2 2.2208 10.9706 -1.49297 19.3472
440 2 2.2208 10.8414 4.14142 19.3238
441 1 -1.1104 12.1968 -0.175875 15.053
443 1 -1.1104 9.42863 -3.08952 17.8283
444 1 -1.1104 9.3239 2.54967 17.7937
445 2 2.2208 7.94929 1.25682 19.2674
446 1 -1.1104 9.5298 -3.06863 15.1547
448 1 -1.1104 9.52404 2.50942 15.0577
450 2 2.2208 8.21144 -1.62796 16.4621
451 2 2.2208 7.96124 4.10932 16.5044
452 1 -1.1104 9.67018 -0.37798 17.8754
453 1 -1.1104 9.48774 -0.175662 15.2105
590 1 -1.1104 9.36984 19.2313 26.4791
622 2 2.2208 -0.51578 9.55976 19.276
714 1 -1.1104 6.60873 16.6532 26.3444
539 1 -1.1104 6.72935 19.6662 20.7997
435 1 -1.1104 12.1694 -2.9316 20.8388
9089 2 2.2208 8.02529 -4.4991 24.905
708 2 2.2208 13.6107 12.3723 24.8949
464 2 2.2208 5.13116 6.9222 16.439
465 2 2.2208 5.32256 12.5354 16.5331
466 1 -1.1104 0.945298 8.20902 17.8343
468 1 -1.1104 1.03322 8.3432 14.9246
472 1 -1.1104 1.07657 5.37152 17.8642
473 1 -1.1104 0.907021 11.0724 17.8336
476 2 2.2208 5.19899 9.57877 19.3497
477 1 -1.1104 0.917407 5.43102 15.0695
479 1 -1.1104 1.09973 11.1957 15.0881
485 1 -1.1104 3.80719 8.33829 17.8886
486 2 2.2208 2.37941 6.83099 19.3586
487 2 2.2208 2.4419 12.3683 19.2773
488 1 -1.1104 3.82175 8.37203 15.2207
490 2 2.2208 2.42543 9.76408 16.4743
491 1 -1.1104 3.80902 5.5561 17.9011
492 1 -1.1104 3.69093 10.967 18.0786
493 1 -1.1104 3.64263 5.45149 14.9749
495 1 -1.1104 3.74109 11.1966 15.218
654 2 2.2208 13.5719 1.2625 24.9388
483 1 -1.1104 6.6766 11.1684 15.0474
467 1 -1.1104 6.5902 8.21169 17.9134
470 1 -1.1104 6.52891 8.41135 15.0708
481 1 -1.1104 6.49823 5.53812 15.0442
524 1 -1.1104 12.1199 16.7087 23.5276
709 1 -1.1104 6.55604 13.8954 23.4164
474 1 -1.1104 6.64273 5.47174 17.7817
475 1 -1.1104 6.69267 11.1215 17.7272
500 2 2.2208 10.7986 6.82122 16.5214
501 2 2.2208 10.9516 12.5935 16.5814
502 1 -1.1104 12.1637 8.19022 18.0117
503 1 -1.1104 12.1979 8.18924 15.2015
505 1 -1.1104 12.3658 5.22102 17.9015
506 1 -1.1104 12.2273 11.128 17.9337
507 2 2.2208 10.8433 9.71991 19.2298
508 1 -1.1104 12.1482 5.41556 15.0724
510 1 -1.1104 12.3192 11.0427 15.0667
512 1 -1.1104 9.39591 8.32343 17.7471
513 2 2.2208 7.95661 6.81559 19.1387
514 2 2.2208 8.04766 12.4251 19.2538
515 1 -1.1104 9.47822 8.20311 15.1084
517 2 2.2208 7.96908 9.68611 16.5183
518 1 -1.1104 9.4214 5.4773 17.8484
519 1 -1.1104 9.42103 11.0951 17.8529
520 1 -1.1104 9.37368 5.43475 15.1899
522 1 -1.1104 9.54855 11.0758 15.1961
373 2 2.2208 2.35331 15.2221 27.6698
712 1 -1.1104 6.75919 13.9685 26.3866
516 1 -1.1104 9.59804 8.25527 20.4877
511 1 -1.1104 12.1596 11.1354 20.7185
498 1 -1.1104 12.2806 13.8608 26.398
587 2 2.2208 8.00164 18.0669 24.9068
527 2 2.2208 5.28359 18.0461 16.5386
528 1 -1.1104 1.00418 13.9096 17.918
529 1 -1.1104 1.21749 19.4545 17.9016
532 1 -1.1104 1.05857 13.9581 15.1194
534 1 -1.1104 1.17344 19.4936 14.9934
540 1 -1.1104 1.12858 16.7078 17.9521
542 2 2.2208 5.22385 15.1564 19.2834
543 2 2.2208 5.32716 20.8739 19.2291
544 1 -1.1104 1.01331 16.7117 15.1234
548 1 -1.1104 3.83158 13.8426 17.9409
549 1 -1.1104 3.9743 19.4785 17.8365
550 2 2.2208 2.44149 18.024 19.2563
551 1 -1.1104 4.04242 14.0468 15.247
553 1 -1.1104 3.86497 19.5807 15.0201
555 2 2.2208 2.42833 15.2368 16.5127
556 2 2.2208 2.46816 20.938 16.4384
557 1 -1.1104 3.84803 16.5598 17.7775
558 1 -1.1104 3.88952 16.7978 15.0433
426 2 2.2208 13.559 9.56581 16.6079
588 1 -1.1104 6.57991 19.3967 26.377
525 2 2.2208 10.7169 15.2239 24.8484
530 1 -1.1104 6.63628 13.9222 17.946
546 1 -1.1104 6.84374 16.6321 15.0741
541 1 -1.1104 6.68768 16.6906 17.8956
554 1 -1.1104 3.72015 19.348 20.7615
569 1 -1.1104 12.3056 19.4509 20.7655
538 1 -1.1104 6.72896 19.3888 14.9331
348 2 2.2208 10.7986 18.0918 27.7451
536 1 -1.1104 6.72011 13.8119 15.1047
531 1 -1.1104 6.68466 19.4705 17.8395
563 2 2.2208 10.9414 18.0784 16.4175
564 1 -1.1104 12.2744 13.922 17.9945
565 1 -1.1104 12.366 19.5335 17.8679
566 1 -1.1104 12.3209 13.9083 15.1374
568 1 -1.1104 12.3372 19.3008 15.016
570 1 -1.1104 12.2814 16.7684 17.9785
571 2 2.2208 10.747 15.3334 19.2828
572 2 2.2208 10.8508 20.8167 19.3236
573 1 -1.1104 12.3212 16.6551 15.0369
575 1 -1.1104 9.40714 13.9543 17.7239
576 1 -1.1104 9.51877 19.6295 17.8021
577 2 2.2208 8.03105 18.045 19.3234
578 1 -1.1104 9.55545 13.8779 15.0049
580 1 -1.1104 9.55304 19.504 15.1575
582 2 2.2208 8.10217 15.3028 16.4511
583 2 2.2208 8.08058 20.9604 16.3662
584 1 -1.1104 9.39373 16.8675 17.8317
585 1 -1.1104 9.56256 16.6683 15.0964
581 1 -1.1104 9.49126 19.4034 20.747
586 1 -1.1104 9.43049 16.6668 20.6994
560 1 -1.1104 12.2008 16.6331 26.3105
394 1 -1.1104 0.984318 -2.86227 20.7388
456 2 2.2208 -0.329114 17.9403 16.4294
415 1 -1.1104 3.74682 2.59871 20.6609
396 1 -1.1104 1.0266 2.7898 20.4781
591 2 2.2208 5.11895 1.39011 22.0861
592 1 -1.1104 1.12709 -2.86983 23.4271
593 1 -1.1104 0.958202 2.64173 23.3705
596 1 -1.1104 0.961987 -2.91 26.2968
597 1 -1.1104 0.923281 2.71056 26.276
600 1 -1.1104 0.945467 0.00197769 23.7062
602 2 2.2208 5.35387 -1.59323 24.9582
603 2 2.2208 5.14115 4.09108 24.9069
604 1 -1.1104 1.1813 -0.153533 26.3981
606 1 -1.1104 3.7822 -3.16346 23.2637
607 1 -1.1104 3.78485 2.75555 23.5318
608 2 2.2208 2.44895 1.2009 25.0085
609 1 -1.1104 3.77614 -3.19866 26.3415
610 1 -1.1104 3.88967 2.60488 26.3847
611 2 2.2208 2.41265 -1.50215 22.0747
612 2 2.2208 2.25943 4.1495 22.1132
613 1 -1.1104 3.66234 -0.226616 23.4262
614 1 -1.1104 3.95752 -0.29076 26.2795
594 1 -1.1104 6.63591 -2.85832 23.6142
400 1 -1.1104 6.55783 2.51784 20.5797
595 1 -1.1104 6.64526 2.84587 23.3993
398 1 -1.1104 6.69529 -3.04387 20.8299
601 1 -1.1104 6.41195 0.00661748 23.5094
598 1 -1.1104 6.52414 -3.18088 26.3543
599 1 -1.1104 6.65974 2.42647 26.3239
375 2 2.2208 2.36169 20.7462 27.619
455 2 2.2208 13.6012 17.9538 24.9113
442 1 -1.1104 12.1443 -0.0944703 20.7836
408 1 -1.1104 6.73624 -0.22383 20.7785
425 2 2.2208 -0.365457 -1.55863 19.2372
437 1 -1.1104 12.1508 2.66877 20.6748
449 1 -1.1104 9.39204 2.69033 20.7876
447 1 -1.1104 9.39428 -2.97445 20.8544
605 1 -1.1104 6.73708 -0.128689 26.4405
454 1 -1.1104 9.37708 -0.0512562 20.7332
627 2 2.2208 10.8103 1.33294 22.0626
628 1 -1.1104 12.1867 -2.8058 23.6342
629 1 -1.1104 12.3066 2.70592 23.5195
630 1 -1.1104 12.1498 -2.84289 26.4963
631 1 -1.1104 12.2918 2.70402 26.3536
632 1 -1.1104 12.1363 0.0141234 23.6389
633 2 2.2208 10.9284 -1.57791 25.025
634 2 2.2208 10.8772 4.03532 24.9307
635 1 -1.1104 12.1668 -0.0353728 26.2991
636 1 -1.1104 9.50768 -2.89642 23.6382
637 1 -1.1104 9.49268 2.48152 23.4628
638 2 2.2208 8.04563 1.37958 24.8746
639 1 -1.1104 9.38501 -3.07877 26.372
640 1 -1.1104 9.53344 2.67549 26.3059
641 2 2.2208 8.04653 -1.42263 22.2609
642 2 2.2208 8.03688 4.11684 21.9371
643 1 -1.1104 9.3367 -0.134997 23.5823
644 1 -1.1104 9.43753 -0.0786949 26.3547
462 2 2.2208 10.8453 18.0525 22.0748
381 2 2.2208 5.27503 12.4365 27.6816
616 2 2.2208 8.02845 21.0299 22.0199
489 1 -1.1104 3.82715 8.24967 20.7289
478 1 -1.1104 0.973062 5.36675 20.6567
494 1 -1.1104 3.77816 5.52373 20.6151
469 1 -1.1104 0.874657 8.05425 20.6539
496 1 -1.1104 3.83823 10.9842 20.8138
480 1 -1.1104 1.02058 10.8936 20.5914
656 2 2.2208 5.23173 6.89194 22.0527
657 2 2.2208 5.17135 12.4034 22.1924
658 1 -1.1104 1.01095 8.26423 23.4417
660 1 -1.1104 0.991767 8.25661 26.3771
662 1 -1.1104 0.95307 5.50535 23.5788
663 1 -1.1104 0.920242 11.0132 23.5335
666 2 2.2208 5.40423 9.69927 24.9838
667 1 -1.1104 1.00481 5.51241 26.4417
668 1 -1.1104 1.10093 11.0989 26.2794
671 1 -1.1104 3.9115 8.29789 23.6054
672 2 2.2208 2.38353 6.91513 24.9561
673 2 2.2208 2.35534 12.5507 24.9668
674 1 -1.1104 4.02697 8.42295 26.4576
675 2 2.2208 2.40096 9.7081 22.1453
676 1 -1.1104 3.74938 5.57099 23.5739
677 1 -1.1104 3.82088 11.1037 23.5714
678 1 -1.1104 3.70559 5.53808 26.3629
679 1 -1.1104 3.93481 11.1033 26.3957
669 1 -1.1104 6.50723 5.3932 26.2941
670 1 -1.1104 6.69188 10.9757 26.3341
618 2 2.2208 13.6698 18.07 19.2377
664 1 -1.1104 6.57863 5.71462 23.5881
615 2 2.2208 8.02692 15.2565 22.0574
499 1 -1.1104 12.2382 19.3342 26.32
471 1 -1.1104 6.66401 8.22642 20.7609
661 1 -1.1104 6.65226 8.12256 26.4596
484 1 -1.1104 6.61812 10.9982 20.766
659 1 -1.1104 6.63879 8.39535 23.6371
523 1 -1.1104 9.52489 11.0205 20.5171
504 1 -1.1104 12.4047 8.3448 20.8036
665 1 -1.1104 6.56795 11.1279 23.6496
482 1 -1.1104 6.46694 5.46899 20.7054
521 1 -1.1104 9.36642 5.57976 20.5989
509 1 -1.1104 11.9492 5.61889 20.6004
687 1 -1.1104 9.3084 10.9453 26.152
688 1 -1.1104 9.36058 5.3592 26.2838
689 1 -1.1104 9.4451 10.9331 23.3571
690 1 -1.1104 9.52207 5.32379 23.3135
691 2 2.2208 8.07573 9.55932 22.0368
692 1 -1.1104 9.41697 8.13267 26.3086
693 2 2.2208 7.98821 12.534 24.8558
694 2 2.2208 7.99297 6.81681 25.0486
695 2 2.2208 10.826 6.95755 22.0178
696 2 2.2208 10.8482 12.4198 22.0349
697 1 -1.1104 12.1302 8.21584 23.5491
698 1 -1.1104 12.1746 8.41094 26.3828
699 1 -1.1104 12.2355 5.4938 23.4956
700 1 -1.1104 12.1737 11.1628 23.5951
701 2 2.2208 10.7115 9.55726 24.8072
702 1 -1.1104 12.1485 5.52246 26.2644
703 1 -1.1104 12.1191 11.0244 26.2343
704 1 -1.1104 9.29697 8.15178 23.4255
423 2 2.2208 13.5687 4.03916 22.1249
537 1 -1.1104 6.57243 13.8474 20.6654
497 1 -1.1104 12.1758 19.4021 23.5009
620 1 -1.1104 9.40015 16.4377 26.1476
680 1 -1.1104 6.65446 16.7523 23.4217
559 1 -1.1104 3.86531 16.5221 20.7823
533 1 -1.1104 1.02377 13.6458 20.7582
545 1 -1.1104 1.06019 16.413 20.6031
552 1 -1.1104 3.80561 13.7757 20.5895
535 1 -1.1104 0.940476 19.242 20.6015
720 2 2.2208 5.36441 15.2797 24.9711
647 2 2.2208 2.48026 15.1699 22.0436
649 2 2.2208 2.31989 20.8396 22.1145
652 1 -1.1104 3.89332 16.673 23.5145
655 1 -1.1104 1.05039 16.66 23.3807
681 1 -1.1104 3.84623 13.9202 26.2915
682 1 -1.1104 3.86237 16.6689 26.1756
683 2 2.2208 2.41988 17.9402 24.8079
686 1 -1.1104 3.68345 19.4694 26.268
705 2 2.2208 5.24613 18.0565 22.1441
706 1 -1.1104 1.04827 13.7926 23.4513
707 1 -1.1104 0.881384 19.2843 23.4406
711 1 -1.1104 3.8087 19.537 23.4961
713 1 -1.1104 3.80198 13.7801 23.4737
715 1 -1.1104 0.979427 19.4309 26.2387
716 1 -1.1104 1.16411 16.6664 26.2621
717 1 -1.1104 0.968812 13.8761 26.3835
719 2 2.2208 5.18161 20.9553 24.6733
463 1 -1.1104 12.073 13.8905 23.6643
653 2 2.2208 13.6091 -1.50281 22.2506
579 1 -1.1104 9.41032 13.9271 20.6278
574 1 -1.1104 12.2827 16.5591 20.7052
526 2 2.2208 10.9182 20.8543 24.8508
562 1 -1.1104 9.52394 19.4678 23.5613
589 1 -1.1104 9.45229 13.7273 26.3166
547 1 -1.1104 6.68297 16.6654 20.6517
617 1 -1.1104 9.41278 16.5991 23.3885
567 1 -1.1104 12.2211 13.8707 20.7786
561 1 -1.1104 9.43406 13.7422 23.5431
718 1 -1.1104 6.69981 19.7078 23.5821
621 2 2.2208 -0.295432 6.89919 16.4186
422 2 2.2208 13.6434 9.7091 22.1372
9127 2 2.2208 -0.274784 -4.37111 22.1537
458 2 2.2208 -0.390741 20.8796 19.2124
354 2 2.2208 7.954 7.03423 13.7426
430 2 2.2208 13.6202 15.1477 22.1862
461 2 2.2208 13.8347 20.8939 22.1056
645 2 2.2208 -0.402834 20.8553 24.847
376 2 2.2208 13.5835 12.4148 13.756
360 2 2.2208 10.8475 20.9398 13.6866
356 2 2.2208 8.08715 12.477 13.7304
364 2 2.2208 5.32813 1.30573 27.8265
340 2 2.2208 13.7343 1.42032 13.8024
349 2 2.2208 7.91405 20.7606 27.5999
378 2 2.2208 13.6191 4.14498 27.682
359 2 2.2208 5.37154 15.3947 13.8508
355 2 2.2208 10.8554 9.63417 13.7467
386 2 2.2208 10.7453 12.4572 27.7083
9016 2 2.2208 8.16819 -4.37257 13.6282
339 2 2.2208 2.38649 1.24556 13.6908
721 2 2.2208 5.36926 23.596 5.28492
722 2 2.2208 5.28036 29.1328 5.32809
723 1 -1.1104 1.0835 25.0909 0.995126
724 1 -1.1104 1.0676 25.0924 3.84662
725 1 -1.1104 0.937992 22.0719 0.989018
726 1 -1.1104 1.02911 27.9286 1.04183
727 2 2.2208 5.30861 26.4289 2.3765
728 1 -1.1104 0.923229 22.2252 3.78699
729 1 -1.1104 0.928291 27.8072 3.86248
730 1 -1.1104 3.72455 25.0507 1.11555
731 2 2.2208 2.49846 23.6708 2.58361
732 2 2.2208 2.37618 29.2008 2.48382
733 1 -1.1104 3.87158 25.1942 3.83381
734 2 2.2208 2.38235 26.4232 5.24641
735 1 -1.1104 3.65327 22.2333 0.912127
736 1 -1.1104 3.85973 27.7401 1.02785
737 1 -1.1104 3.89413 22.3482 3.85235
738 1 -1.1104 3.74328 27.8604 3.8714
790 2 2.2208 -0.277918 34.846 5.39779
1081 2 2.2208 5.2011 34.887 -0.206258
1006 2 2.2208 -0.306494 40.4346 10.8514
745 1 -1.1104 6.73133 27.7715 0.978745
870 1 -1.1104 4.05383 27.576 6.63693
791 2 2.2208 -0.310099 32.0796 2.46125
742 1 -1.1104 6.60713 25.0598 0.975096
1077 2 2.2208 10.8716 29.3086 -0.359473
744 1 -1.1104 6.46365 22.2635 1.01941
747 1 -1.1104 6.61963 27.6833 3.72515
1078 2 2.2208 2.41687 37.6398 -0.116053
743 1 -1.1104 6.71679 24.9616 4.05521
746 1 -1.1104 6.7354 22.2736 3.73401
748 2 2.2208 10.939 23.6678 5.24251
749 2 2.2208 10.9945 29.2374 5.27409
750 1 -1.1104 12.2648 25.0475 0.935278
751 1 -1.1104 12.3651 25.0052 3.91842
752 1 -1.1104 12.285 22.2051 0.946872
753 1 -1.1104 12.388 27.8891 0.970187
754 2 2.2208 10.9338 26.4668 2.36316
755 1 -1.1104 12.2079 22.0543 3.7766
756 1 -1.1104 12.2301 27.8433 3.84798
757 1 -1.1104 9.50616 25.0368 0.963995
758 2 2.2208 8.11997 23.6872 2.31584
759 2 2.2208 8.09485 29.2539 2.44792
760 1 -1.1104 9.54726 25.0757 3.74652
761 2 2.2208 8.06437 26.3969 5.18566
762 1 -1.1104 9.46436 22.2879 0.922317
763 1 -1.1104 9.55344 27.7426 0.889454
764 1 -1.1104 9.47907 22.3199 3.67804
765 1 -1.1104 9.56542 27.9075 3.77449
1628 1 -1.1104 3.76692 47.57 9.63361
863 1 -1.1104 6.76437 25.0922 6.68621
1048 2 2.2208 7.91076 29.2275 13.5759
1084 2 2.2208 8.01204 37.5724 -0.231894
792 2 2.2208 -0.308597 37.6338 2.54425
1079 2 2.2208 2.45012 32.1011 -0.241702
1074 2 2.2208 11.0517 23.6846 -0.419022
769 2 2.2208 5.3834 34.7371 5.23972
770 1 -1.1104 1.01778 30.7924 1.05471
771 1 -1.1104 1.00674 36.3354 1.0834
773 1 -1.1104 1.24001 30.7166 3.78972
774 1 -1.1104 1.00432 36.2205 3.80482
776 1 -1.1104 1.10665 33.5287 1.13701
777 2 2.2208 5.29775 31.9883 2.42709
778 2 2.2208 5.22916 37.7127 2.66126
779 1 -1.1104 1.19243 33.4995 3.99222
781 1 -1.1104 3.88105 30.6136 0.971927
782 1 -1.1104 3.90915 36.2715 1.28267
783 2 2.2208 2.48321 34.8522 2.51859
784 1 -1.1104 3.98406 30.625 3.86454
785 1 -1.1104 3.90542 36.1974 3.9985
786 2 2.2208 2.45849 31.9781 5.27828
787 2 2.2208 2.56598 37.5937 5.29673
788 1 -1.1104 3.82129 33.3544 0.990055
789 1 -1.1104 3.80526 33.4096 3.81409
793 1 -1.1104 6.69932 30.6219 1.07998
780 1 -1.1104 6.53869 33.4234 3.79366
772 1 -1.1104 6.59234 36.2105 1.13853
775 1 -1.1104 6.61637 36.1861 3.94595
1411 1 -1.1104 1.12376 47.4814 1.13925
919 1 -1.1104 1.23678 30.5832 6.4987
814 2 2.2208 13.6595 34.8599 2.58495
839 2 2.2208 -0.290236 40.4024 5.29127
1028 2 2.2208 10.8625 46.1476 10.8987
1022 1 -1.1104 12.3604 44.6493 6.61574
1085 2 2.2208 7.99206 32.0553 -0.351567
794 1 -1.1104 6.67484 30.6119 3.90669
1047 2 2.2208 10.8541 26.5593 13.7419
1414 1 -1.1104 6.75757 47.5419 1.18864
795 1 -1.1104 6.60786 33.5303 1.08364
796 2 2.2208 10.8981 34.7704 5.41481
797 1 -1.1104 12.1682 30.6915 1.07047
798 1 -1.1104 12.3644 36.2621 1.05843
799 1 -1.1104 12.2026 30.7312 3.94716
800 1 -1.1104 12.2333 36.2653 4.01813
801 1 -1.1104 12.2213 33.3367 1.0693
802 2 2.2208 10.9699 32.0928 2.62395
803 2 2.2208 10.9623 37.7045 2.58461
804 1 -1.1104 12.154 33.5014 3.83345
805 1 -1.1104 9.426 30.6972 0.923039
806 1 -1.1104 9.46532 36.2183 1.13033