ITEM: TIMESTEP
90000
ITEM: NUMBER OF ATOMS
17670
ITEM: BOX BOUNDS pp pp pp
-3.5466734605221606e-01 2.7694667346052533e+01
-4.2451461323374104e+00 3.3232514613233838e+02
-3.5822373439573313e-01 2.7698223734394830e+01
ITEM: ATOMS id type q x y z
1 2 2.2208 5.2611 1.2862 5.11794
2 1 -1.1104 1.02299 -2.95191 1.01587
3 1 -1.1104 0.82107 2.79549 0.96575
6 1 -1.1104 1.01293 -2.86718 3.64828
7 1 -1.1104 0.86803 2.77972 3.7955
10 1 -1.1104 0.987311 -0.117063 0.848576
12 2 2.2208 5.17508 -1.44111 2.3323
13 2 2.2208 5.18513 4.13672 2.30837
14 1 -1.1104 0.952473 -0.11121 3.74085
16 1 -1.1104 3.88363 -2.91611 1.07927
17 1 -1.1104 3.61036 2.6774 1.01469
18 2 2.2208 2.38294 1.36843 2.25073
19 1 -1.1104 3.86689 -3.01884 3.79673
20 1 -1.1104 3.85089 2.81167 3.75293
21 2 2.2208 2.40867 -1.6351 5.18186
22 2 2.2208 2.37614 4.12388 5.21725
23 1 -1.1104 3.87872 -0.0711086 0.938061
24 1 -1.1104 3.68991 -0.215668 3.79411
166 1 -1.1104 1.0016 -2.96319 6.47249
170 1 -1.1104 1.01335 -0.275741 6.5896
4 1 -1.1104 6.48172 -2.90849 0.742901
174 1 -1.1104 3.93171 -0.243158 6.52098
167 1 -1.1104 0.858319 2.48713 6.52731
105 2 2.2208 13.5447 6.88618 2.27807
9 1 -1.1104 6.80138 2.69263 3.72814
15 1 -1.1104 6.60382 -0.0538066 3.71392
8 1 -1.1104 6.56169 -2.88556 3.65346
203 2 2.2208 13.5126 4.15647 10.7958
361 2 2.2208 10.8676 15.3692 13.5855
314 1 -1.1104 9.41959 16.8021 9.31067
11 1 -1.1104 6.75986 0.0278847 0.952135
8998 2 2.2208 13.6638 -4.25285 2.44591
169 1 -1.1104 6.60228 2.74286 6.50448
5 1 -1.1104 6.46938 2.94936 0.807176
31 2 2.2208 10.8074 1.25735 5.11181
32 1 -1.1104 12.1565 -2.86037 0.910965
33 1 -1.1104 12.1155 2.79873 0.838758
34 1 -1.1104 12.2653 -2.91084 3.77655
35 1 -1.1104 12.293 2.6841 3.58604
36 1 -1.1104 12.1267 -0.111736 1.06612
37 2 2.2208 10.7557 -1.48955 2.36149
39 1 -1.1104 12.0664 -0.137519 3.77263
40 1 -1.1104 9.28888 -2.79874 1.07794
41 1 -1.1104 9.38116 2.66444 0.818515
42 2 2.2208 8.08854 1.37219 2.22729
43 1 -1.1104 9.43296 -2.79491 3.75798
44 1 -1.1104 9.54216 2.67479 3.69795
45 2 2.2208 8.00049 -1.45573 5.16836
46 2 2.2208 8.09455 4.10537 5.0657
47 1 -1.1104 9.50267 -0.0672089 0.912879
48 1 -1.1104 9.26482 -0.105094 3.75979
38 2 2.2208 10.76 4.07742 2.26751
206 1 -1.1104 12.1347 2.55264 6.53522
207 1 -1.1104 12.053 -0.0562016 6.67114
171 1 -1.1104 6.68981 -0.180043 6.53792
205 1 -1.1104 12.2519 -2.7317 6.59333
209 1 -1.1104 9.46133 2.65588 6.4261
323 1 -1.1104 12.1271 16.7027 9.35539
208 1 -1.1104 9.38205 -2.9898 6.50597
229 2 2.2208 13.6227 1.29685 8.00311
318 1 -1.1104 9.3783 19.5969 9.19427
50 2 2.2208 13.552 -1.37338 5.32905
54 2 2.2208 5.20816 6.90763 5.17931
55 2 2.2208 5.22782 12.4923 5.03592
56 1 -1.1104 0.965514 8.4436 1.05778
58 1 -1.1104 1.09396 8.19986 3.91168
60 1 -1.1104 0.96729 5.53855 0.93479
61 1 -1.1104 0.991281 11.2944 1.08363
66 2 2.2208 5.1873 9.66409 2.33332
67 1 -1.1104 0.990555 5.49028 3.95221
68 1 -1.1104 1.05296 11.0584 3.66727
71 1 -1.1104 3.69544 8.29965 1.00002
72 2 2.2208 2.33697 6.89805 2.25652
73 2 2.2208 2.41368 12.556 2.30116
74 1 -1.1104 3.87005 8.27668 3.82298
75 2 2.2208 2.48019 9.67681 5.1437
76 1 -1.1104 3.80597 5.43949 0.976741
77 1 -1.1104 3.88582 11.22 1.0654
79 1 -1.1104 3.71463 5.53029 3.73391
80 1 -1.1104 3.79131 11.1399 3.74543
236 1 -1.1104 0.893383 5.38891 6.59194
62 1 -1.1104 0.994261 11.0793 6.55171
78 1 -1.1104 3.72614 11.0207 6.56621
57 1 -1.1104 6.60452 8.32638 0.900565
64 1 -1.1104 6.61766 11.1793 1.04608
59 1 -1.1104 6.80105 8.29471 3.8276
238 1 -1.1104 3.79662 8.33916 6.62046
325 2 2.2208 10.8444 15.368 8.01472
9003 2 2.2208 10.6177 -4.24625 10.7163
9016 2 2.2208 7.9339 -4.21704 13.6149
70 1 -1.1104 6.47565 11.021 3.79401
63 1 -1.1104 6.54312 5.58685 1.00719
69 1 -1.1104 6.45027 5.44815 3.67577
84 2 2.2208 10.7386 6.73786 5.17169
85 2 2.2208 10.805 12.4738 5.14366
86 1 -1.1104 12.0679 8.31999 1.05149
87 1 -1.1104 12.3388 8.31392 3.76199
88 1 -1.1104 12.2379 5.64065 0.787465
89 1 -1.1104 12.2328 11.3065 0.895428
91 2 2.2208 10.8876 9.81821 2.35435
92 1 -1.1104 12.0543 5.43825 3.62836
93 1 -1.1104 12.2929 11.1438 3.83173
94 1 -1.1104 9.38131 8.5339 0.977045
95 2 2.2208 7.99519 6.91527 2.35022
96 2 2.2208 7.92433 12.5367 2.36229
97 1 -1.1104 9.59372 8.25433 3.63838
98 2 2.2208 8.06387 9.63937 5.24631
99 1 -1.1104 9.32967 5.46924 0.96615
100 1 -1.1104 9.42056 11.4673 0.890706
102 1 -1.1104 9.30589 5.48978 3.58242
103 1 -1.1104 9.45765 11.1008 3.71196
269 1 -1.1104 9.28255 5.37857 6.54242
265 1 -1.1104 12.2249 8.17508 6.62935
267 1 -1.1104 9.47187 8.27373 6.56498
90 1 -1.1104 11.994 11.1842 6.57063
235 1 -1.1104 6.54765 8.29002 6.56328
101 1 -1.1104 9.42295 11.1308 6.59393
321 1 -1.1104 9.42238 19.5015 12.0837
336 2 2.2208 13.532 7.08958 13.5619
106 2 2.2208 5.11666 18.1759 5.0385
107 1 -1.1104 0.950879 14.0329 0.862079
109 1 -1.1104 1.00413 19.5651 1.07345
113 1 -1.1104 0.998133 13.8556 3.72998
114 1 -1.1104 0.812573 19.621 3.76911
116 1 -1.1104 0.98047 16.8672 0.883008
119 2 2.2208 5.19157 15.3152 2.23537
120 2 2.2208 5.12616 21.0466 2.41312
121 1 -1.1104 1.02262 16.8191 3.74908
123 1 -1.1104 3.80066 13.8418 0.876016
125 1 -1.1104 3.66267 19.6034 0.900217
127 2 2.2208 2.38044 18.0841 2.3431
128 1 -1.1104 3.73777 14.0099 3.69362
129 1 -1.1104 3.73709 19.6254 3.63058
130 2 2.2208 2.34586 15.3635 5.12038
131 2 2.2208 2.34649 20.999 5.13168
132 1 -1.1104 3.9377 16.622 0.785423
134 1 -1.1104 3.81353 16.8055 3.49835
316 2 2.2208 7.91446 20.9367 10.6791
108 1 -1.1104 1.13488 13.9467 6.53196
124 1 -1.1104 3.89629 13.9487 6.43617
133 1 -1.1104 3.78515 16.8333 6.47347
139 1 -1.1104 6.52247 19.4965 3.73466
122 1 -1.1104 6.6636 16.7554 3.69109
110 1 -1.1104 6.54956 13.955 0.890063
140 1 -1.1104 6.51819 16.7276 0.891453
112 1 -1.1104 6.46086 19.5614 6.41669
138 1 -1.1104 6.58991 19.6972 0.96483
115 1 -1.1104 6.5835 13.898 3.70922
329 1 -1.1104 12.2845 19.5443 12.2323
117 1 -1.1104 1.03692 16.8014 6.64367
126 1 -1.1104 3.62693 19.7137 6.53077
302 1 -1.1104 0.983449 19.6571 6.5105
154 1 -1.1104 9.36539 13.9414 6.44308
143 1 -1.1104 12.0655 14.0641 6.36677
141 2 2.2208 10.7155 18.1955 5.13881
142 1 -1.1104 12.1782 14.1529 0.881726
144 1 -1.1104 12.1451 19.4819 0.920013
146 1 -1.1104 12.2898 13.8186 3.67513
147 1 -1.1104 12.1584 19.4823 3.72238
148 1 -1.1104 12.0689 16.8589 0.923937
150 2 2.2208 10.7515 15.3521 2.26598
151 2 2.2208 10.7335 20.9528 2.29922
152 1 -1.1104 12.045 16.6366 3.67374
153 1 -1.1104 9.26938 14.0373 0.875513
155 1 -1.1104 9.32988 19.7883 0.853902
157 2 2.2208 7.88695 18.211 2.32345
158 1 -1.1104 9.39276 13.9201 3.67209
159 1 -1.1104 9.34772 19.7019 3.5713
160 2 2.2208 7.99521 15.3058 5.05666
161 2 2.2208 8.03151 20.9038 5.06914
162 1 -1.1104 9.31268 16.8624 0.860647
164 1 -1.1104 9.44883 16.8133 3.80739
149 1 -1.1104 12.1185 16.8865 6.55613
111 1 -1.1104 6.57464 13.9488 6.45329
350 2 2.2208 10.6737 4.2015 13.647
165 2 2.2208 13.5049 18.114 2.25929
156 1 -1.1104 9.42215 19.5854 6.47164
118 1 -1.1104 6.52433 16.7592 6.45778
231 2 2.2208 13.6753 20.9212 5.02479
363 2 2.2208 13.6211 18.1527 13.5282
28 2 2.2208 13.614 20.8098 10.7205
173 1 -1.1104 3.84054 2.55845 6.60791
172 1 -1.1104 4.00529 -2.90152 6.51201
175 2 2.2208 4.99268 1.37885 10.8319
176 1 -1.1104 0.857619 -2.95618 12.0434
177 1 -1.1104 1.03313 2.59868 12.1824
180 1 -1.1104 0.891847 -2.90913 9.2761
181 1 -1.1104 0.919079 2.6738 9.14354
184 1 -1.1104 0.927181 -0.181685 12.0854
186 2 2.2208 5.2949 -1.32478 7.94874
188 1 -1.1104 0.965323 -0.188228 9.32998
190 1 -1.1104 3.75778 -2.89158 12.1848
191 1 -1.1104 3.70805 2.8169 12.2672
192 2 2.2208 2.37551 1.26916 7.95724
193 1 -1.1104 3.86872 -2.7649 9.31663
194 1 -1.1104 3.65801 2.65891 9.4171
195 2 2.2208 2.28709 -1.58207 10.7446
196 2 2.2208 2.29054 4.0658 10.7741
197 1 -1.1104 3.74002 -0.0740524 12.1982
198 1 -1.1104 3.70761 -0.0662681 9.38742
187 2 2.2208 5.14378 4.06658 8.01635
168 1 -1.1104 6.72888 -2.86612 6.57972
185 1 -1.1104 6.41666 -0.0794763 12.3462
182 1 -1.1104 6.69338 -2.7856 9.26105
189 1 -1.1104 6.51316 -0.10707 9.4191
178 1 -1.1104 6.46779 -2.93968 12.2985
183 1 -1.1104 6.49006 2.6793 9.23702
179 1 -1.1104 6.4461 2.61177 12.1747
343 2 2.2208 7.77436 1.34025 13.5849
341 2 2.2208 5.13025 4.14446 13.6069
8996 2 2.2208 7.84122 -4.22847 2.35998
328 1 -1.1104 12.1177 13.8385 9.27968
313 2 2.2208 -0.308073 15.4756 8.05413
332 2 2.2208 13.6258 18.101 7.95592
210 1 -1.1104 9.44757 -0.246235 6.49323
355 2 2.2208 10.7174 9.68072 13.5885
211 2 2.2208 10.6577 1.38391 10.7651
212 1 -1.1104 12.128 -2.90276 12.3063
213 1 -1.1104 12.1092 2.77099 12.1483
214 1 -1.1104 12.0854 -2.91945 9.47155
215 1 -1.1104 12.2771 2.74517 9.42852
216 1 -1.1104 11.946 -0.229788 12.2327
217 2 2.2208 10.6914 -1.57786 7.9549
219 1 -1.1104 12.214 -0.0898628 9.38128
220 1 -1.1104 9.30903 -2.75715 12.1646
221 1 -1.1104 9.31612 2.73455 12.2256
222 2 2.2208 8.00915 1.32221 7.86985
223 1 -1.1104 9.42299 -2.717 9.50251
224 1 -1.1104 9.27836 2.76777 9.38379
225 2 2.2208 7.86842 -1.31021 10.8701
226 2 2.2208 7.87499 4.09792 10.7662
227 1 -1.1104 9.1091 0.086904 12.1269
228 1 -1.1104 9.34351 0.0305166 9.30319
218 2 2.2208 10.9524 4.06193 7.93882
52 2 2.2208 13.5074 9.71406 10.7899
315 1 -1.1104 9.4305 16.872 12.2518
237 1 -1.1104 6.58584 5.60125 6.4869
65 1 -1.1104 6.706 11.1358 6.43751
320 2 2.2208 7.90986 18.1158 7.82136
234 1 -1.1104 0.939041 8.17235 6.6158
239 1 -1.1104 3.81878 5.52671 6.56517
240 2 2.2208 5.1214 6.8995 10.8782
241 2 2.2208 5.17051 12.4258 10.6852
242 1 -1.1104 1.01815 8.27206 12.2879
244 1 -1.1104 0.85956 8.49429 9.46962
246 1 -1.1104 0.809703 5.56997 12.1907
247 1 -1.1104 1.03633 11.0618 12.3191
250 2 2.2208 5.18544 9.72157 7.97747
251 1 -1.1104 0.932266 5.60216 9.45825
252 1 -1.1104 0.930957 11.4119 9.37652
255 1 -1.1104 3.77999 8.35115 12.3257
256 2 2.2208 2.43039 6.84377 7.94116
257 2 2.2208 2.42464 12.6002 7.96479
258 1 -1.1104 3.58003 8.17432 9.38189
259 2 2.2208 2.3284 9.7794 10.7318
260 1 -1.1104 3.8043 5.50838 12.3987
261 1 -1.1104 3.77425 11.2076 12.1072
262 1 -1.1104 3.68351 5.40318 9.50789
263 1 -1.1104 3.88315 11.1493 9.3355
245 1 -1.1104 6.53108 8.40848 9.3802
248 1 -1.1104 6.57991 5.34394 12.1185
249 1 -1.1104 6.50402 10.9941 12.1519
243 1 -1.1104 6.50258 8.40496 12.324
254 1 -1.1104 6.63886 11.2062 9.35918
352 2 2.2208 5.13962 9.8054 13.6068
353 2 2.2208 2.39236 12.5182 13.6688
319 1 -1.1104 9.48016 13.8002 9.32574
322 1 -1.1104 9.30771 13.8047 12.2001
53 2 2.2208 13.4895 12.6325 7.81999
376 2 2.2208 13.498 12.5992 13.5363
354 2 2.2208 8.00066 6.97906 13.6085
49 2 2.2208 13.5741 1.21515 2.38602
253 1 -1.1104 6.38003 5.62951 9.28531
8999 2 2.2208 2.42072 -4.18716 7.89648
266 1 -1.1104 12.0949 5.44311 6.47986
264 1 -1.1104 9.40203 11.0491 9.38976
268 1 -1.1104 9.35471 5.50569 9.51155
270 1 -1.1104 9.43508 11.2458 12.2591
271 1 -1.1104 9.26564 5.51784 12.1437
272 2 2.2208 7.97795 9.77858 10.7997
273 1 -1.1104 9.38236 8.31165 9.48642
274 2 2.2208 8.09961 12.5967 7.88143
275 2 2.2208 7.90594 6.9462 7.94034
276 2 2.2208 10.6728 6.87397 10.908
277 2 2.2208 10.7461 12.3526 10.7422
278 1 -1.1104 11.9405 8.25397 12.2479
279 1 -1.1104 11.9987 8.1658 9.36052
280 1 -1.1104 12.0566 5.48203 12.1248
281 1 -1.1104 12.1022 11.1568 12.2365
282 2 2.2208 10.7049 9.65729 8.07102
283 1 -1.1104 12.2205 5.41054 9.26501
284 1 -1.1104 12.2028 11.005 9.29105
285 1 -1.1104 9.28727 8.39865 12.2703
232 2 2.2208 13.6122 9.61859 5.09162
317 2 2.2208 7.95792 15.3306 10.7532
359 2 2.2208 5.1395 15.3166 13.5106
357 2 2.2208 2.32726 18.2053 13.514
310 2 2.2208 2.41918 15.3365 10.8039
305 1 -1.1104 3.79845 13.9192 9.28597
309 2 2.2208 2.33453 20.9661 10.6358
301 1 -1.1104 3.77991 19.5186 9.33637
304 1 -1.1104 3.8397 16.6706 9.2605
298 1 -1.1104 0.919718 19.5823 12.1964
295 2 2.2208 5.20093 15.2834 7.94084
300 2 2.2208 5.12175 18.1544 10.7396
308 1 -1.1104 3.85375 16.8205 12.1861
307 1 -1.1104 1.02059 16.585 12.1507
299 1 -1.1104 0.935252 13.8783 12.1322
303 2 2.2208 2.58037 18.1594 7.96686
286 1 -1.1104 3.71462 19.5922 12.078
287 1 -1.1104 3.82543 13.9287 12.109
291 1 -1.1104 0.872479 19.5021 9.2798
292 1 -1.1104 1.18296 16.7167 9.36214
293 2 2.2208 5.23544 20.9864 7.91256
294 1 -1.1104 0.990437 14.1235 9.35208
289 1 -1.1104 6.63972 16.668 9.34238
297 1 -1.1104 6.49531 13.8617 12.057
290 1 -1.1104 6.5864 13.8901 9.17232
306 1 -1.1104 6.63154 16.573 12.1455
296 1 -1.1104 6.58988 19.5708 12.1754
288 1 -1.1104 6.4496 19.5429 9.34699
324 2 2.2208 10.8994 20.8787 7.88146
326 1 -1.1104 12.1367 16.7754 12.1539
358 2 2.2208 5.12609 20.9199 13.5329
9000 2 2.2208 5.11693 -4.15105 10.7583
330 1 -1.1104 12.0762 13.8959 12.0102
333 2 2.2208 13.4958 15.2593 10.7914
331 2 2.2208 10.7858 18.0855 10.7104
163 1 -1.1104 9.26454 16.7038 6.55905
145 1 -1.1104 12.1658 19.5801 6.42569
362 2 2.2208 7.86773 18.1513 13.4743
327 1 -1.1104 12.3503 19.4811 9.33707
233 2 2.2208 13.4289 4.12139 5.12727
351 2 2.2208 2.31772 6.9605 13.6571
104 2 2.2208 13.6255 12.608 2.25899
202 2 2.2208 13.5521 6.80366 7.94941
346 2 2.2208 10.6481 -1.50559 13.6616
9015 2 2.2208 13.556 -4.24868 13.6224
8997 2 2.2208 10.837 -4.19962 5.16794
230 2 2.2208 13.3906 -1.52992 10.842
204 2 2.2208 13.4028 15.3678 5.06797
340 2 2.2208 13.5132 1.50141 13.5764
339 2 2.2208 2.31921 1.34023 13.5825
388 2 2.2208 5.0509 1.45889 16.4472
389 1 -1.1104 1.02688 -2.85108 17.7549
390 1 -1.1104 0.835708 2.59196 17.9655
393 1 -1.1104 1.03952 -2.78109 14.9252
395 1 -1.1104 0.965553 2.71672 15.0144
401 1 -1.1104 0.932858 -0.134029 17.8402
403 2 2.2208 5.17361 -1.35082 19.1638
405 1 -1.1104 0.888591 0.105128 14.96
409 1 -1.1104 3.71807 -2.68672 17.7562
410 1 -1.1104 3.48654 2.68512 17.7353
411 2 2.2208 2.1686 1.29795 19.2756
412 1 -1.1104 3.78269 -2.83581 14.9915
414 1 -1.1104 3.8141 2.75069 14.9585
416 2 2.2208 2.33606 -1.38298 16.3893
417 2 2.2208 2.28987 4.0963 16.4054
418 1 -1.1104 3.84748 0.0546578 17.9181
419 1 -1.1104 3.68458 -0.0460412 15.1202
404 2 2.2208 5.00134 4.0129 19.3975
420 1 -1.1104 3.71004 0.0567274 20.7555
406 1 -1.1104 0.669783 -0.0256403 20.5324
394 1 -1.1104 1.2022 -2.86448 20.6841
9012 2 2.2208 5.08258 -4.25221 27.5615
9159 2 2.2208 5.08881 -4.21088 16.3804
402 1 -1.1104 6.49422 0.000111014 17.7584
399 1 -1.1104 6.54389 2.96905 15.0744
392 1 -1.1104 6.5296 2.77886 17.9628
386 2 2.2208 10.7942 12.6141 27.5596
413 1 -1.1104 3.82923 -2.8366 20.5596
415 1 -1.1104 3.70722 2.80673 20.8066
400 1 -1.1104 6.48368 2.78146 20.6951
560 1 -1.1104 11.8927 16.7922 26.1468
461 2 2.2208 13.5234 21.0378 21.9436
407 1 -1.1104 6.47541 -0.0212096 15.1196
391 1 -1.1104 6.48167 -2.99853 17.8553
397 1 -1.1104 6.56584 -2.81111 15.0471
431 2 2.2208 10.6998 1.32056 16.3976
432 1 -1.1104 12.1626 -2.84107 17.5803
433 1 -1.1104 12.1418 2.6846 17.9133
434 1 -1.1104 12.1847 -2.97515 15.0071
436 1 -1.1104 12.1886 2.81387 15.079
438 1 -1.1104 12.1917 -0.0335247 17.8929
439 2 2.2208 10.7423 -1.49215 19.1709
440 2 2.2208 10.9058 4.1329 19.2658
441 1 -1.1104 12.0509 0.00808877 15.0158
443 1 -1.1104 9.40899 -2.76166 17.8016
444 1 -1.1104 9.31713 2.72104 17.9372
445 2 2.2208 7.91914 1.32056 19.3817
446 1 -1.1104 9.26607 -2.88201 15.1548
448 1 -1.1104 9.32656 2.69016 14.9739
450 2 2.2208 7.9096 -1.40686 16.5492
451 2 2.2208 7.85937 4.28884 16.5114
452 1 -1.1104 9.33161 -0.0100636 17.8295
453 1 -1.1104 9.32229 0.0524679 14.957
454 1 -1.1104 9.33625 -0.124724 20.6019
398 1 -1.1104 6.53772 -2.7938 20.5158
9128 2 2.2208 7.9448 -4.25896 19.1645
9130 2 2.2208 13.5348 -4.22747 19.2137
449 1 -1.1104 9.30445 2.74318 20.6159
408 1 -1.1104 6.42093 -0.00476044 20.5747
435 1 -1.1104 12.1251 -2.88579 20.7213
442 1 -1.1104 12.2258 -0.0744667 20.6832
447 1 -1.1104 9.35981 -2.88622 20.5656
370 2 2.2208 7.99211 -1.60465 27.5559
378 2 2.2208 13.559 4.14431 27.6705
625 2 2.2208 -0.329758 1.29867 21.9625
462 2 2.2208 10.7811 18.0832 21.9914
464 2 2.2208 5.18009 7.07844 16.5149
465 2 2.2208 5.22944 12.4925 16.2918
466 1 -1.1104 0.849923 8.37215 17.6881
468 1 -1.1104 1.03084 8.26192 14.9726
472 1 -1.1104 0.945214 5.45437 17.8965
473 1 -1.1104 0.846374 11.2593 17.7582
476 2 2.2208 5.10933 9.94445 19.2314
477 1 -1.1104 0.688901 5.49483 15.087
479 1 -1.1104 1.07512 11.1455 15.1266
485 1 -1.1104 3.68767 8.42409 17.9432
486 2 2.2208 2.20081 7.0313 19.3107
487 2 2.2208 2.26107 12.5238 19.1817
488 1 -1.1104 3.7904 8.46944 15.0639
490 2 2.2208 2.3027 9.80928 16.383
491 1 -1.1104 3.69302 5.43664 17.9808
492 1 -1.1104 3.71373 11.2166 17.7588
493 1 -1.1104 3.68779 5.62538 15.181
495 1 -1.1104 3.76225 11.1424 14.9448
467 1 -1.1104 6.55189 8.53833 17.7188
480 1 -1.1104 1.0242 11.1713 20.6463
481 1 -1.1104 6.46165 5.7197 14.9911
475 1 -1.1104 6.55458 11.3232 17.8355
474 1 -1.1104 6.49714 5.70828 17.7181
470 1 -1.1104 6.61286 8.43606 14.9879
469 1 -1.1104 0.809865 8.43425 20.642
489 1 -1.1104 3.75456 8.42307 20.7543
710 2 2.2208 13.5167 6.9814 24.8147
482 1 -1.1104 6.37102 5.52703 20.4714
483 1 -1.1104 6.6406 11.1946 14.9678
500 2 2.2208 10.8463 7.01692 16.4973
501 2 2.2208 10.815 12.4937 16.362
502 1 -1.1104 12.1311 8.30223 17.86
503 1 -1.1104 12.3822 8.31819 15.006
505 1 -1.1104 12.2624 5.61712 17.8862
506 1 -1.1104 12.2206 11.2195 17.7957
507 2 2.2208 10.7406 9.749 19.1043
508 1 -1.1104 12.1095 5.6371 14.9855
510 1 -1.1104 12.1081 11.1173 14.9253
512 1 -1.1104 9.45016 8.51165 17.6933
513 2 2.2208 7.92329 6.93314 19.2213
514 2 2.2208 8.09759 12.4906 19.1469
515 1 -1.1104 9.34903 8.3214 14.9555
517 2 2.2208 7.90777 9.78326 16.4023
518 1 -1.1104 9.28832 5.78403 17.7772
519 1 -1.1104 9.46578 11.0424 17.6998
520 1 -1.1104 9.26686 5.50643 14.9867
522 1 -1.1104 9.39314 11.1027 14.9957
523 1 -1.1104 9.27857 11.0823 20.4422
521 1 -1.1104 9.29839 5.48583 20.4952
509 1 -1.1104 12.1409 5.57356 20.6245
516 1 -1.1104 9.34964 8.25835 20.58
504 1 -1.1104 12.1428 8.49235 20.6254
650 2 2.2208 13.5716 12.5305 19.1925
426 2 2.2208 13.5518 9.77811 16.3137
589 1 -1.1104 9.44429 13.8259 26.0357
527 2 2.2208 5.15826 18.1745 16.5121
528 1 -1.1104 0.757037 14.0124 17.6448
529 1 -1.1104 0.87301 19.5475 17.8398
532 1 -1.1104 0.969063 13.9671 14.8987
534 1 -1.1104 0.959604 19.3633 15.0015
540 1 -1.1104 0.869726 16.7628 17.7602
542 2 2.2208 5.11492 15.3581 19.0881
543 2 2.2208 5.02738 20.9645 19.1693
544 1 -1.1104 0.76211 16.7412 14.9567
548 1 -1.1104 3.52617 13.9977 17.5361
549 1 -1.1104 3.69778 19.675 17.8102
550 2 2.2208 2.30123 18.0896 19.0842
551 1 -1.1104 3.75033 13.9777 14.8833
553 1 -1.1104 3.87064 19.6014 14.8796
555 2 2.2208 2.27317 15.3196 16.232
556 2 2.2208 2.33876 20.9714 16.2355
557 1 -1.1104 3.73473 16.6812 17.6609
558 1 -1.1104 3.57522 16.8394 14.8554
533 1 -1.1104 0.908044 13.9803 20.5541
559 1 -1.1104 3.84422 16.7685 20.4609
552 1 -1.1104 3.71137 14.151 20.4627
545 1 -1.1104 0.911125 16.8111 20.5612
538 1 -1.1104 6.58478 19.6082 14.9747
531 1 -1.1104 6.56946 19.5599 17.6456
541 1 -1.1104 6.59117 16.6375 17.8678
536 1 -1.1104 6.59803 13.9207 15.0893
455 2 2.2208 13.4568 18.1322 24.8686
539 1 -1.1104 6.52523 19.6664 20.4293
586 1 -1.1104 9.41952 16.7663 20.6109
530 1 -1.1104 6.48693 13.9636 17.693
546 1 -1.1104 6.43709 16.7135 14.8957
563 2 2.2208 10.7494 18.1488 16.3911
564 1 -1.1104 12.0225 13.8793 17.7746
565 1 -1.1104 12.1409 19.6698 17.7781
566 1 -1.1104 12.3042 13.9346 14.9263
568 1 -1.1104 12.0977 19.5309 14.9578
570 1 -1.1104 12.2294 16.7475 17.6633
571 2 2.2208 10.6561 15.379 19.0703
572 2 2.2208 10.7634 20.8792 19.1479
573 1 -1.1104 12.0576 16.6341 15.0104
575 1 -1.1104 9.28738 13.845 17.6854
576 1 -1.1104 9.32933 19.3694 17.8215
577 2 2.2208 7.91534 18.1242 19.1986
578 1 -1.1104 9.40403 13.8659 15.0251
580 1 -1.1104 9.40312 19.4683 15.0403
582 2 2.2208 7.9817 15.2956 16.3714
583 2 2.2208 7.90507 20.8361 16.3167
584 1 -1.1104 9.47812 16.7288 17.7616
585 1 -1.1104 9.14406 16.6696 14.9271
547 1 -1.1104 6.49487 16.8708 20.527
567 1 -1.1104 12.124 13.9104 20.7179
579 1 -1.1104 9.40231 13.9043 20.4906
574 1 -1.1104 12.1913 16.6627 20.5422
569 1 -1.1104 12.062 19.4263 20.5537
618 2 2.2208 13.5412 18.2232 19.1843
562 1 -1.1104 9.27238 19.655 23.4722
396 1 -1.1104 0.876076 2.65021 20.6338
651 2 2.2208 13.492 6.95054 19.3137
591 2 2.2208 5.08044 1.42526 22.0449
592 1 -1.1104 0.947289 -2.82882 23.5142
593 1 -1.1104 0.929361 2.71356 23.4322
596 1 -1.1104 0.852773 -2.94376 26.3509
597 1 -1.1104 0.987044 2.6483 26.3224
600 1 -1.1104 1.00549 -0.0726865 23.4037
602 2 2.2208 5.16621 -1.49267 24.7865
603 2 2.2208 5.1614 4.11405 24.8339
604 1 -1.1104 0.958185 -0.190368 26.1792
606 1 -1.1104 3.73297 -2.87821 23.4796
607 1 -1.1104 3.77073 2.78773 23.4997
608 2 2.2208 2.42723 1.28102 24.9249
609 1 -1.1104 3.69534 -2.87998 26.2909
610 1 -1.1104 3.86981 2.69381 26.2854
611 2 2.2208 2.36175 -1.39594 22.1215
612 2 2.2208 2.29717 4.22924 22.2014
613 1 -1.1104 3.75792 -0.0931928 23.5465
614 1 -1.1104 3.7805 -0.0169824 26.2099
601 1 -1.1104 6.52138 -0.207051 23.3283
599 1 -1.1104 6.49498 2.75827 26.1882
595 1 -1.1104 6.52264 2.75903 23.3814
381 2 2.2208 5.20728 12.5909 27.6011
387 2 2.2208 13.5826 9.71315 27.6444
364 2 2.2208 5.26397 1.27367 27.5754
587 2 2.2208 7.80052 18.1077 24.7875
379 2 2.2208 5.12947 6.97618 27.6099
437 1 -1.1104 12.1463 2.67876 20.6219
617 1 -1.1104 9.35505 16.8349 23.4809
428 2 2.2208 13.4822 1.35309 19.1413
598 1 -1.1104 6.56053 -2.89743 26.0748
348 2 2.2208 10.7158 18.1146 27.6088
372 2 2.2208 7.99553 4.11308 27.5743
594 1 -1.1104 6.60038 -2.81455 23.2509
605 1 -1.1104 6.64198 -0.116099 26.2145
627 2 2.2208 10.7131 1.41673 22.0258
628 1 -1.1104 12.1548 -2.84354 23.5359
629 1 -1.1104 11.9918 2.681 23.3548
630 1 -1.1104 12.1666 -2.92588 26.199
631 1 -1.1104 12.2334 2.68439 26.1955
632 1 -1.1104 12.093 -0.0139207 23.361
633 2 2.2208 10.7396 -1.44199 24.7345
635 1 -1.1104 12.2647 -0.123866 26.0828
636 1 -1.1104 9.30784 -2.87248 23.3809
637 1 -1.1104 9.30554 2.77226 23.3287
638 2 2.2208 8.04758 1.29576 24.7299
639 1 -1.1104 9.40399 -2.97337 26.1691
640 1 -1.1104 9.40338 2.73963 26.1844
641 2 2.2208 7.94874 -1.50617 21.9455
642 2 2.2208 7.90149 4.04524 21.9496
643 1 -1.1104 9.33811 -0.0407925 23.327
644 1 -1.1104 9.4653 -0.065392 26.1352
634 2 2.2208 10.5832 4.2341 24.7059
654 2 2.2208 13.6114 1.30456 24.8647
459 2 2.2208 13.5532 -1.38391 16.4004
345 2 2.2208 13.4754 20.9368 27.6099
494 1 -1.1104 3.64328 5.61578 20.7615
496 1 -1.1104 3.69992 11.2973 20.5638
478 1 -1.1104 0.823588 5.45431 20.6118
656 2 2.2208 5.16684 6.83975 22.0236
657 2 2.2208 5.15005 12.7726 21.9836
658 1 -1.1104 0.973888 8.48099 23.3383
660 1 -1.1104 1.02023 8.25722 26.2809
662 1 -1.1104 0.918514 5.71888 23.5156
663 1 -1.1104 0.912438 11.163 23.5526
666 2 2.2208 5.13552 9.83693 24.7076
667 1 -1.1104 0.853133 5.58054 26.2249
668 1 -1.1104 0.999023 11.2255 26.4141
671 1 -1.1104 3.75903 8.40265 23.3533
672 2 2.2208 2.32809 6.99297 24.8561
673 2 2.2208 2.41692 12.701 24.7237
674 1 -1.1104 3.83269 8.32917 26.1587
675 2 2.2208 2.53499 9.78432 21.9938
676 1 -1.1104 3.74196 5.55069 23.5385
677 1 -1.1104 3.82824 11.4234 23.3641
678 1 -1.1104 3.69422 5.51224 26.1868
679 1 -1.1104 3.88686 11.3286 26.1798
669 1 -1.1104 6.56354 5.58049 26.2561
664 1 -1.1104 6.63915 5.54647 23.3023
665 1 -1.1104 6.6589 11.2639 23.3242
670 1 -1.1104 6.60892 11.0642 26.153
659 1 -1.1104 6.53174 8.26014 23.3267
380 2 2.2208 2.40974 9.91245 27.6704
484 1 -1.1104 6.57883 11.2794 20.6392
471 1 -1.1104 6.51692 8.27924 20.4803
511 1 -1.1104 12.1143 11.2356 20.7085
661 1 -1.1104 6.47033 8.38741 26.0616
687 1 -1.1104 9.36285 11.1771 26.1116
688 1 -1.1104 9.41955 5.60492 26.156
689 1 -1.1104 9.3788 11.0418 23.3014
690 1 -1.1104 9.35734 5.55962 23.3104
691 2 2.2208 7.87708 9.78353 21.8369
692 1 -1.1104 9.385 8.36744 26.2173
693 2 2.2208 7.88029 12.5772 24.8659
694 2 2.2208 7.80178 6.98455 24.8365
695 2 2.2208 10.8147 6.9149 22.0915
696 2 2.2208 10.7326 12.5898 21.9827
697 1 -1.1104 12.1649 8.33558 23.3287
698 1 -1.1104 12.2031 8.39574 26.2605
699 1 -1.1104 12.0272 5.49786 23.3429
700 1 -1.1104 12.1762 11.1271 23.4316
701 2 2.2208 10.7672 9.80256 24.8622
702 1 -1.1104 12.0589 5.57988 26.1448
703 1 -1.1104 12.2098 11.0888 26.2003
704 1 -1.1104 9.29645 8.35177 23.4897
619 2 2.2208 13.5721 15.2619 16.4024
708 2 2.2208 13.5715 12.5001 24.7614
385 2 2.2208 7.91217 9.79235 27.6325
460 2 2.2208 13.6698 20.9318 16.2244
384 2 2.2208 10.7058 7.0633 27.6157
535 1 -1.1104 0.957429 19.5011 20.5549
537 1 -1.1104 6.69094 14.0355 20.6491
714 1 -1.1104 6.5415 16.7142 26.2039
588 1 -1.1104 6.56097 19.4619 26.1787
709 1 -1.1104 6.48594 14.1182 23.5176
718 1 -1.1104 6.60579 19.4853 23.2983
680 1 -1.1104 6.53018 16.7866 23.2453
554 1 -1.1104 3.67604 19.6128 20.5768
712 1 -1.1104 6.62306 13.841 26.35
719 2 2.2208 5.04719 21.0294 24.7184
717 1 -1.1104 1.0038 14.0822 26.0284
720 2 2.2208 5.01449 15.4622 24.7774
647 2 2.2208 2.33199 15.4147 21.8507
649 2 2.2208 2.21465 20.9039 21.9216
652 1 -1.1104 3.70724 16.8567 23.2655
655 1 -1.1104 0.986316 16.7163 23.4296
681 1 -1.1104 3.81516 14.0412 26.106
682 1 -1.1104 3.73213 16.7479 25.9715
683 2 2.2208 2.27656 18.2151 24.8354
686 1 -1.1104 3.76108 19.5861 26.2363
705 2 2.2208 5.06567 18.2564 21.8992
706 1 -1.1104 0.993039 13.8131 23.2997
707 1 -1.1104 0.960865 19.4778 23.3661
711 1 -1.1104 3.85061 19.6787 23.294
713 1 -1.1104 3.63389 14.2119 23.2996
715 1 -1.1104 1.01232 19.7338 26.256
716 1 -1.1104 0.999919 16.8939 26.326
374 2 2.2208 5.14184 18.1982 27.6912
590 1 -1.1104 9.37012 19.7303 26.1986
344 2 2.2208 13.4168 15.3271 27.5681
375 2 2.2208 2.2192 21.038 27.6874
349 2 2.2208 7.86892 21.0474 27.6625
347 2 2.2208 7.95591 15.3391 27.6011
524 1 -1.1104 12.1795 16.8038 23.4163
616 2 2.2208 7.90939 20.9748 22.073
526 2 2.2208 10.6625 21.0898 24.7499
620 1 -1.1104 9.16114 16.727 26.241
499 1 -1.1104 12.1234 19.5194 26.19
561 1 -1.1104 9.41037 13.9309 23.2695
615 2 2.2208 8.03248 15.4794 21.9695
430 2 2.2208 13.5278 15.3722 21.9983
525 2 2.2208 10.6129 15.3786 24.7366
498 1 -1.1104 12.2324 13.9801 26.1087
463 1 -1.1104 12.1387 14.0799 23.5679
497 1 -1.1104 12.1006 19.7487 23.3135
581 1 -1.1104 9.26695 19.538 20.7043
365 2 2.2208 2.33932 -1.47783 27.6613
422 2 2.2208 13.6002 9.79597 21.996
429 2 2.2208 13.5087 4.24655 16.2976
423 2 2.2208 13.5073 4.08664 22.1254
653 2 2.2208 13.5395 -1.49828 22.0663
9093 2 2.2208 5.18865 -4.20948 21.9596
9089 2 2.2208 7.91693 -4.12462 24.7164
9158 2 2.2208 2.43008 -4.22846 19.2734
338 2 2.2208 5.12722 -1.41733 13.714
366 2 2.2208 2.40424 4.09979 27.6146
369 2 2.2208 10.7509 1.3259 27.5412
356 2 2.2208 8.02266 12.5194 13.7017
360 2 2.2208 10.6632 20.8305 13.6832
377 2 2.2208 13.6032 -1.4307 27.5592
373 2 2.2208 2.3651 15.3515 27.4429
721 2 2.2208 5.14889 23.8623 5.09006
722 2 2.2208 5.15038 29.5388 5.05988
723 1 -1.1104 0.701896 25.2958 0.758897
724 1 -1.1104 0.79861 25.2182 3.68315
725 1 -1.1104 0.700048 22.3233 0.78865
726 1 -1.1104 0.929032 28.0301 0.928143
727 2 2.2208 5.11554 26.6078 2.25939
728 1 -1.1104 0.91191 22.307 3.6056
729 1 -1.1104 0.853167 27.996 3.68848
730 1 -1.1104 3.62745 25.2034 0.882333
731 2 2.2208 2.20655 23.8037 2.34983
732 2 2.2208 2.21166 29.3593 2.24748
733 1 -1.1104 3.67343 25.1033 3.79817
734 2 2.2208 2.42144 26.5874 5.09867
735 1 -1.1104 3.64884 22.5176 0.989232
736 1 -1.1104 3.70675 27.9109 0.79504
737 1 -1.1104 3.6374 22.4321 3.66392
738 1 -1.1104 3.5763 28.152 3.52994
864 1 -1.1104 0.978966 22.354 6.49195
868 1 -1.1104 3.74213 25.3719 6.61464
867 1 -1.1104 6.48697 28.1206 6.56767
862 1 -1.1104 0.97344 24.9771 6.51264
865 1 -1.1104 0.893542 28.0697 6.45745
745 1 -1.1104 6.38575 28.102 0.885662
746 1 -1.1104 6.54243 22.5488 3.74595
744 1 -1.1104 6.50373 22.5714 0.831892
743 1 -1.1104 6.66259 25.2283 3.798
747 1 -1.1104 6.37804 28.0496 3.62165
1066 2 2.2208 8.13315 46.3063 13.6168
870 1 -1.1104 3.65937 28.227 6.38127
869 1 -1.1104 3.71432 22.3701 6.48649
863 1 -1.1104 6.45885 25.1663 6.61775
866 1 -1.1104 6.58763 22.3578 6.48996
742 1 -1.1104 6.49383 25.3018 0.952981
748 2 2.2208 10.774 23.7346 4.98813
749 2 2.2208 10.7334 29.3223 5.10872
750 1 -1.1104 12.1867 25.3402 0.970747
751 1 -1.1104 12.0844 25.1633 3.70346
752 1 -1.1104 12.2525 22.3317 0.836337
753 1 -1.1104 11.9954 28.1609 0.913523
754 2 2.2208 10.7695 26.5658 2.30423
755 1 -1.1104 12.2219 22.3851 3.63056
756 1 -1.1104 11.9969 28.0015 3.633
757 1 -1.1104 9.3399 25.2067 0.877251
758 2 2.2208 7.87399 23.9233 2.32713
759 2 2.2208 7.90337 29.4612 2.35692
760 1 -1.1104 9.42497 25.1011 3.73803
761 2 2.2208 7.97731 26.6936 5.11465
762 1 -1.1104 9.38113 22.4923 0.919491
763 1 -1.1104 9.07835 28.0714 0.854983
764 1 -1.1104 9.36153 22.3509 3.62976
765 1 -1.1104 9.242 28.0242 3.73346
897 1 -1.1104 11.9937 27.815 6.3434
899 1 -1.1104 9.35995 22.2358 6.53417
900 1 -1.1104 9.35669 28.0138 6.54117
895 1 -1.1104 12.2194 25.0325 6.45452
766 2 2.2208 13.6234 23.7841 2.23416
896 1 -1.1104 12.2663 22.1816 6.5331
1640 1 -1.1104 9.56612 47.6401 6.70185
1611 1 -1.1104 1.06798 47.6736 12.3194
769 2 2.2208 5.24822 35.0958 5.11393
770 1 -1.1104 0.861348 30.9166 0.742259
771 1 -1.1104 0.818175 36.2972 0.888319
773 1 -1.1104 0.834069 30.7104 3.63896
774 1 -1.1104 1.03681 36.4611 3.65986
776 1 -1.1104 0.876824 33.6894 0.877942
777 2 2.2208 5.12718 32.3743 2.23575
778 2 2.2208 5.29267 37.7753 2.2242
779 1 -1.1104 1.02921 33.4194 3.51922
781 1 -1.1104 3.64724 30.897 0.776343
782 1 -1.1104 3.83869 36.4658 0.904951
783 2 2.2208 2.48847 35.0472 2.29577
784 1 -1.1104 3.73571 30.9146 3.75709
785 1 -1.1104 3.94738 36.5498 3.65029
786 2 2.2208 2.34512 32.335 5.06345
787 2 2.2208 2.37503 37.8029 5.12029
788 1 -1.1104 3.78758 33.6353 0.870257
789 1 -1.1104 3.84888 33.8568 3.69357
780 1 -1.1104 6.49984 33.7196 3.66603
775 1 -1.1104 6.57216 36.4902 3.62015
923 1 -1.1104 0.923691 33.6644 6.44636
925 1 -1.1104 3.70014 31.0147 6.3683
919 1 -1.1104 0.810086 30.864 6.4033
927 1 -1.1104 3.79675 33.7584 6.55998
921 1 -1.1104 6.60673 30.8996 6.40086
922 1 -1.1104 6.429 36.5387 6.52028
793 1 -1.1104 6.54733 30.8884 0.936161
794 1 -1.1104 6.44272 31.0002 3.62815
795 1 -1.1104 6.61661 33.5678 0.868994
772 1 -1.1104 6.72842 36.4333 0.934755
924 1 -1.1104 6.71072 33.7204 6.4581
926 1 -1.1104 3.76808 36.5191 6.60963
1032 2 2.2208 13.4684 32.2057 5.27022
1646 1 -1.1104 12.3241 47.4411 12.0746
768 2 2.2208 13.5241 26.4784 5.14828
796 2 2.2208 10.8568 35.1431 5.36685
797 1 -1.1104 12.1622 30.8934 0.874974