LAMMPS data file via write_data, version 29 Oct 2020, timestep = 10307

17700 atoms
3 atom types

-0.2771782822933222 27.617178282293317 xlo xhi
-3.4472205766305355 331.52722057663055 ylo yhi
-0.2771782783022145 27.617178278302212 zlo zhi

Masses

1 15.9994
2 232.0381
3 131.293

Atoms # full

1 0 2 2.2208 5.3274006701369085 2.118834766867874 5.258394744291842 0 0 0
2 0 1 -1.1104 1.2142799227260328 -2.0590968104717318 1.1073828197026858 0 0 0
3 0 1 -1.1104 1.1475965251391929 3.5247939689661867 1.0691047153097475 0 0 0
4 0 1 -1.1104 1.153399146529004 -2.0994877941399155 3.8357025767481487 0 0 0
5 0 1 -1.1104 1.2820393753223123 3.2809917235744566 3.7746448029667654 0 0 0
6 0 1 -1.1104 1.1193178437249225 0.835060419593653 1.2052187636578084 0 0 0
7 0 2 2.2208 5.494373986799082 -0.6655547610684271 2.4232694567414836 0 0 0
8 0 2 2.2208 5.3220461985967455 4.941091423464027 2.5422760880007536 0 0 0
9 0 1 -1.1104 1.1846389428770145 0.7204640057700219 3.8567515084994968 0 0 0
10 0 1 -1.1104 4.008834693846175 -2.313503897180988 0.8683335649048523 0 0 0
11 0 1 -1.1104 4.060158775676031 3.558285151749219 1.0192424813290764 0 0 0
12 0 2 2.2208 2.6491556161644407 2.1806031944917175 2.433241996450783 0 0 0
13 0 1 -1.1104 4.010997639327602 -1.9391436449443689 3.703274529486965 0 0 0
14 0 1 -1.1104 4.1247011448123425 3.581539486165562 3.974035508184042 0 0 0
15 0 2 2.2208 2.5085982867172745 -0.6592423447130907 5.112529863315222 0 0 0
16 0 2 2.2208 2.546138656698533 4.938616063708011 5.3541725307047585 0 0 0
17 0 1 -1.1104 3.9835897661905944 0.5670777679256896 1.0620419902297713 0 0 0
18 0 1 -1.1104 4.019624259518396 0.7942380108754611 3.9130237117109195 0 0 0
174 0 1 -1.1104 3.8747946878291213 3.552436312436948 6.785347316614102 0 0 0
8281 0 2 2.2208 2.602810634027663 -3.4188816839350804 2.4984618477451956 0 0 0
108 0 2 2.2208 13.648979113782508 10.486589668158297 10.93730886357197 0 0 0
561 0 2 2.2208 2.6255566123969514 2.047247942584142 13.56691502894467 0 0 0
21 0 1 -1.1104 6.817097045974151 3.5186708791599948 3.8245367443432703 0 0 0
8982 0 2 2.2208 -0.2157371303266533 16.065333206774508 8.122509699717515 0 0 0
173 0 1 -1.1104 4.021978583916637 0.722425200273412 6.733767449616318 0 0 0
26 0 1 -1.1104 1.1828152633747882 3.5065503238366538 6.564994570175841 0 0 0
27 0 1 -1.1104 1.242202461531977 0.8239037954017592 6.6546975360921286 0 0 0
336 0 2 2.2208 13.644126322288454 7.727543108133568 8.057191206351877 0 0 0
9202 0 2 2.2208 -0.13200920149276027 2.1200120842860177 5.22592991376032 0 0 0
203 0 1 -1.1104 6.693902802436901 0.7719093081365668 6.543171462594372 0 0 0
8485 0 2 2.2208 10.892946120403709 -3.4419821112262525 10.85621213752738 0 0 0
23 0 1 -1.1104 6.692177274772129 -2.11945028080749 1.0275194735925 0 0 0
32 0 1 -1.1104 6.790834598119022 0.7397527702013664 3.814504451464816 0 0 0
31 0 1 -1.1104 6.8874034683581655 -2.127939274196217 3.8085719325237335 0 0 0
24 0 1 -1.1104 6.713053555335069 0.6976192820336223 1.0674083094565048 0 0 0
25 0 1 -1.1104 6.763440322608535 3.4870785847792543 0.9661394954679101 0 0 0
34 0 2 2.2208 11.047811565784768 2.139663188565247 5.341966001353101 0 0 0
35 0 1 -1.1104 12.297627165312193 -2.0670977117223996 0.8514860080093486 0 0 0
36 0 1 -1.1104 12.479550877881453 3.5400097739609047 1.1332410558246706 0 0 0
37 0 1 -1.1104 12.363018601371296 -1.9823639529104122 3.6841781395779 0 0 0
38 0 1 -1.1104 12.540766302461678 3.514186708561186 3.7672192901797024 0 0 0
39 0 1 -1.1104 12.255596454178443 0.6339769449482243 0.7884332521743713 0 0 0
40 0 2 2.2208 10.944520274246866 -0.6239972750213452 2.495318708548026 0 0 0
41 0 1 -1.1104 12.57813561609324 0.7821094320405458 3.8126899681835265 0 0 0
42 0 1 -1.1104 9.522629974193038 -2.2105891195317193 1.08054175900509 0 0 0
43 0 1 -1.1104 9.544637650758316 3.48513966565183 1.191055638433013 0 0 0
44 0 2 2.2208 8.199255720641942 2.1205707860415215 2.4766981506403405 0 0 0
45 0 1 -1.1104 9.592823032818043 -2.13053136681334 3.913870661205852 0 0 0
46 0 1 -1.1104 9.565895071537 3.660650066123007 3.9472059687318066 0 0 0
47 0 2 2.2208 8.147727433572712 -0.8011419516654679 5.294086820689038 0 0 0
48 0 2 2.2208 8.106969194543295 4.923105631027794 5.39159286675233 0 0 0
49 0 1 -1.1104 9.526855738692147 0.7344055168557924 1.0981380296516752 0 0 0
50 0 1 -1.1104 9.70341322922498 0.6208710886449431 3.99950721794928 0 0 0
51 0 2 2.2208 10.999270598226083 4.97823653507523 2.661194359182419 0 0 0
198 0 1 -1.1104 12.560596597632493 -1.9312397204897245 6.605372656519608 0 0 0
202 0 1 -1.1104 6.716517747064629 3.541890828058608 6.693509719376776 0 0 0
8958 0 2 2.2208 -0.22193755629347578 21.62168864398462 2.6096258510144255 0 0 0
9205 0 2 2.2208 -0.2613524608812092 7.70637126776651 10.780447197875183 0 0 0
9206 0 2 2.2208 -0.23333190575115426 7.526138452484742 5.363305227223304 0 0 0
324 0 2 2.2208 13.650303973874335 15.95003922964906 -0.2502083386595287 0 0 0
63 0 2 2.2208 5.289912625714896 7.697167258160993 5.301856440117833 0 0 0
64 0 2 2.2208 5.347359958345238 13.208530565566994 5.293423513318757 0 0 0
65 0 1 -1.1104 1.1778216678185922 9.10679642736389 1.1529994560335204 0 0 0
66 0 1 -1.1104 1.0356546490130507 8.980846874589083 3.936611486460634 0 0 0
67 0 1 -1.1104 1.1605880415269636 6.330406480060322 1.1729214105494437 0 0 0
68 0 1 -1.1104 0.987552474988276 11.83280719343831 1.0964836599275622 0 0 0
69 0 2 2.2208 5.281456851304927 10.366905380063338 2.4978556225177426 0 0 0
70 0 1 -1.1104 1.2308941843224164 6.235502678030898 3.921062880005122 0 0 0
71 0 1 -1.1104 1.1213539840992084 11.92713211087196 3.9618273106997055 0 0 0
72 0 1 -1.1104 3.945952345556227 9.011375253558638 1.137030601288688 0 0 0
73 0 2 2.2208 2.5272323875655522 7.6544316603307525 2.5239617848733555 0 0 0
74 0 2 2.2208 2.510511653173148 13.233181808873061 2.471341425465867 0 0 0
75 0 1 -1.1104 3.8580902119723937 8.923662744772216 3.9743677719966954 0 0 0
76 0 2 2.2208 2.507718746668642 10.414626988239007 5.283615119897476 0 0 0
77 0 1 -1.1104 3.7869549985337314 6.23045767012449 1.0083200243299701 0 0 0
78 0 1 -1.1104 3.8433972806949024 11.595909236295059 1.02964283083743 0 0 0
79 0 1 -1.1104 4.0438409869652725 6.283278609164008 3.7632725277652357 0 0 0
80 0 1 -1.1104 3.8434937516942043 11.854360728214669 3.858627163557528 0 0 0
235 0 1 -1.1104 3.868512659137865 11.783419634790885 6.820266817789415 0 0 0
82 0 1 -1.1104 6.820076503047297 6.34599432386496 3.910933380349834 0 0 0
9201 0 2 2.2208 -0.17696318227435232 -0.6084280380495 8.00683014718405 0 0 0
233 0 1 -1.1104 1.0693491223856406 11.826339801211628 6.713246184176267 0 0 0
54 0 2 2.2208 8.179257590821575 4.981132797422827 -0.21588206023359932 0 0 0
9203 0 2 2.2208 -0.13928517473430177 4.9473904693069475 8.112093191236427 0 0 0
8308 0 2 2.2208 11.125871228444316 -3.4149313277783904 5.32059089252355 0 0 0
88 0 1 -1.1104 6.701311445608433 9.107594448548806 3.873769461307672 0 0 0
84 0 1 -1.1104 6.753547854619395 9.021173518885048 1.0810434841979182 0 0 0
86 0 1 -1.1104 6.644321783596286 11.757015810813082 3.958494891129635 0 0 0
262 0 1 -1.1104 6.824009998663212 9.033735770215307 6.622808146132714 0 0 0
81 0 1 -1.1104 6.808273163326877 6.314064502359813 1.0669293846627124 0 0 0
83 0 1 -1.1104 6.536290841095795 11.8259857410043 1.202057291116774 0 0 0
89 0 2 2.2208 10.897782716213065 7.658151659624426 5.329513063477975 0 0 0
90 0 2 2.2208 10.89235327551671 13.152838461204723 5.252537526028707 0 0 0
91 0 1 -1.1104 12.465385683064525 9.163803072217055 1.0887846167927075 0 0 0
92 0 1 -1.1104 12.44171783212806 8.996805191310441 3.7644437826740518 0 0 0
93 0 1 -1.1104 12.422530583593634 6.320401958523575 1.1130623209043387 0 0 0
94 0 1 -1.1104 12.127430371832343 11.908256741264463 1.0614973858552497 0 0 0
95 0 2 2.2208 10.959065477650986 10.473972852665124 2.562345492965757 0 0 0
96 0 1 -1.1104 12.422925055851639 6.32118772528201 3.938778426014685 0 0 0
97 0 1 -1.1104 12.264997185970499 11.815605113702443 3.9493929886930323 0 0 0
98 0 1 -1.1104 9.608506258932657 8.940475222558245 1.124037737056352 0 0 0
99 0 2 2.2208 8.204359440523813 7.617843317771508 2.576040236124172 0 0 0
100 0 2 2.2208 8.09288247555373 13.054896696022453 2.4724770071320847 0 0 0
101 0 1 -1.1104 9.58590831664124 9.10096947768349 3.9961540126548685 0 0 0
102 0 2 2.2208 8.060545439099101 10.538707587490656 5.244390488842582 0 0 0
103 0 1 -1.1104 9.610684195120255 6.252239319162101 1.1256209128975814 0 0 0
104 0 1 -1.1104 9.387424583068213 11.641166875711495 1.0791630680261086 0 0 0
105 0 1 -1.1104 9.497492780497396 6.262647561289184 3.980020344629317 0 0 0
106 0 1 -1.1104 9.511673205196718 11.713632355068027 3.8171017552019424 0 0 0
258 0 1 -1.1104 6.674343386512557 6.300825253864416 6.703008316143296 0 0 0
269 0 1 -1.1104 9.62550716552626 9.19134304640161 6.6641929910497995 0 0 0
265 0 1 -1.1104 9.66178558910184 6.3513530777367775 6.735149342455011 0 0 0
263 0 1 -1.1104 6.631300637374653 11.860802297928842 6.78205836492716 0 0 0
270 0 1 -1.1104 12.390275528612417 6.280671467200828 6.805612383246939 0 0 0
9263 0 2 2.2208 -0.21211884838617498 21.70640803053836 13.647661968535113 0 0 0
53 0 1 -1.1104 9.42409229609876 17.52078286518442 9.642568499828483 0 0 0
9096 0 2 2.2208 -0.2309716009723046 10.329479530165703 8.034450719771273 0 0 0
8928 0 2 2.2208 -0.16674598634363258 16.039412592920176 2.473917702635577 0 0 0
115 0 2 2.2208 5.423794894376034 18.700303155098425 5.296312246970547 0 0 0
116 0 1 -1.1104 1.1853413970738476 14.650710359101058 1.115950886009182 0 0 0
117 0 1 -1.1104 1.0844366477319525 20.278548696322982 1.0485224995213585 0 0 0
118 0 1 -1.1104 1.1826316071446974 14.743873256484171 3.9767128535830674 0 0 0
119 0 1 -1.1104 1.2773003626898658 20.229625276425086 3.8260151210069164 0 0 0
120 0 1 -1.1104 1.170576609766462 17.44624842919315 1.068578934081573 0 0 0
121 0 2 2.2208 5.459156020456957 16.074925214641045 2.523026900478008 0 0 0
122 0 2 2.2208 5.4235615775838655 21.512986917834592 2.641596608015301 0 0 0
123 0 1 -1.1104 1.0777276509472682 17.464556209871258 3.912524569577229 0 0 0
124 0 1 -1.1104 3.840523241325947 14.450315406923396 0.9755850967472071 0 0 0
125 0 1 -1.1104 3.871161072181916 20.173869766793835 1.120148244240947 0 0 0
126 0 2 2.2208 2.4585796974803578 18.831239984749228 2.453091911121323 0 0 0
127 0 1 -1.1104 3.9840739668111005 14.604079148741775 3.734708363906983 0 0 0
128 0 1 -1.1104 3.9370483869476898 20.215124256828478 3.9303506636118066 0 0 0
129 0 2 2.2208 2.536487565376909 15.950125864253934 5.241253131876024 0 0 0
130 0 2 2.2208 2.5253166748849054 21.62514906812422 5.234208233884609 0 0 0
131 0 1 -1.1104 4.097942528233503 17.428410903659255 1.088823937399946 0 0 0
132 0 1 -1.1104 3.957219808164212 17.401861095194867 3.8456214279010776 0 0 0
136 0 1 -1.1104 1.025824015253168 14.565923496318957 6.7602394322718675 0 0 0
300 0 1 -1.1104 1.3294422578134948 20.23701773284259 6.64417899850768 0 0 0
17345 0 2 2.2208 -0.1578744931900104 -3.3519382854341657 5.239051569831828 0 0 0
114 0 2 2.2208 2.6478594996457856 21.678874391794714 -0.25185209756634047 0 0 0
8981 0 2 2.2208 -0.269359564066459 18.67807284937667 5.270012024811214 0 0 0
167 0 1 -1.1104 6.607745817654943 20.15481465879615 9.415834991409804 0 0 0
143 0 1 -1.1104 6.802762631231364 17.20314270844371 1.2092513216899181 0 0 0
142 0 1 -1.1104 6.781908491200674 17.3397488252859 3.8535284947079047 0 0 0
135 0 1 -1.1104 6.653157998127278 14.544490763847437 1.0169246567283732 0 0 0
112 0 1 -1.1104 6.706639913027771 14.542215615310237 6.614632153492134 0 0 0
291 0 1 -1.1104 9.539857906621798 20.331354994688855 6.789488778381579 0 0 0
144 0 1 -1.1104 6.77333811752848 14.440952314038773 3.821487477498541 0 0 0
140 0 1 -1.1104 6.8585566469469565 20.128136467925977 4.027953824925776 0 0 0
141 0 1 -1.1104 6.8855916271048825 20.308522170233953 1.3009470441971556 0 0 0
145 0 2 2.2208 10.982869964811309 18.889665191843754 5.233955143945437 0 0 0
146 0 1 -1.1104 12.140755445711003 14.563772947273643 0.9599714678976483 0 0 0
147 0 1 -1.1104 12.361212423521717 20.319242419407022 1.0301728954876619 0 0 0
148 0 1 -1.1104 12.379667802712515 14.686846280895153 3.8681245096172545 0 0 0
149 0 1 -1.1104 12.323371018931507 20.206484180961663 3.744785967968803 0 0 0
150 0 1 -1.1104 12.231064900638259 17.426040240304047 1.1285964048990778 0 0 0
151 0 2 2.2208 10.871195087700398 15.96801833933587 2.5538658250532467 0 0 0
152 0 2 2.2208 10.995628313861758 21.619142406909887 2.4652582841795114 0 0 0
153 0 1 -1.1104 12.2769214668472 17.304742078994153 3.8931151441595344 0 0 0
154 0 1 -1.1104 9.461930455387822 14.492290758677886 1.192896660833891 0 0 0
155 0 1 -1.1104 9.582058017858966 20.257388754023438 1.0934282082851188 0 0 0
156 0 2 2.2208 8.220628651130546 18.82501176769999 2.4184649700169887 0 0 0
157 0 1 -1.1104 9.511924357155623 14.574193576839152 3.9805296189476658 0 0 0
158 0 1 -1.1104 9.58164760907525 20.218111995319205 3.933638353071895 0 0 0
159 0 2 2.2208 8.150221124254024 15.972081942070941 5.294850237397457 0 0 0
160 0 2 2.2208 8.129036084103914 21.595390163242985 5.267347433596831 0 0 0
161 0 1 -1.1104 9.500071403572312 17.349563414753387 1.153703664077887 0 0 0
162 0 1 -1.1104 9.467617159837586 17.39116557275451 3.954216678964477 0 0 0
9200 0 2 2.2208 -0.27383470015990596 2.0734963016904793 10.7662580130222 0 0 0
170 0 1 -1.1104 6.849914308836929 20.331115546791786 12.374634555821823 0 0 0
299 0 1 -1.1104 6.880257589338634 14.744131975074339 12.434487109655755 0 0 0
164 0 2 2.2208 8.219979725084272 21.564493035142608 -0.26323414444254195 0 0 0
172 0 1 -1.1104 1.0992982954358261 -2.0906248497712108 6.6427003274557 0 0 0
175 0 1 -1.1104 3.925288885708871 -2.1726406711251025 6.4425060266058916 0 0 0
297 0 1 -1.1104 6.670774893668035 17.43457741415968 9.605655864657775 0 0 0
498 0 2 2.2208 11.030875099949245 16.0746370199728 13.660450206406429 0 0 0
446 0 2 2.2208 10.809727529427885 10.50980318085454 13.650529806427313 0 0 0
328 0 2 2.2208 13.59701462651732 13.250799619967419 2.484850954856167 0 0 0
176 0 2 2.2208 5.344049906921445 2.148264020403629 10.79044985388286 0 0 0
177 0 1 -1.1104 1.0979718873403321 -2.157792684330395 12.186879709165664 0 0 0
178 0 1 -1.1104 1.168463784119881 3.368467352617391 12.223455142621953 0 0 0
179 0 1 -1.1104 1.1929757626074735 -2.023845287067129 9.401082572318296 0 0 0
180 0 1 -1.1104 1.0827652754868182 3.4897981675034506 9.511843208773424 0 0 0
181 0 1 -1.1104 1.1821417342245963 0.7650915969214225 12.159199383558965 0 0 0
182 0 2 2.2208 5.369762727801656 -0.7407144592559922 8.029646089681652 0 0 0
183 0 2 2.2208 5.2712342203350895 4.9240271217158265 8.14135620741365 0 0 0
184 0 1 -1.1104 1.0562805772306805 0.8039644772972478 9.400718651429038 0 0 0
185 0 1 -1.1104 3.867689046997816 -2.0301564755974537 12.128562890809047 0 0 0
186 0 1 -1.1104 4.006644961993917 3.437478699618323 12.220394960683294 0 0 0
187 0 2 2.2208 2.512579762886957 2.061479721836282 8.097783523130696 0 0 0
188 0 1 -1.1104 4.039964492842859 -2.1508456928472 9.345500149774965 0 0 0
189 0 1 -1.1104 3.77584963075143 3.4273470007721376 9.468176693326814 0 0 0
190 0 2 2.2208 2.543145700972407 -0.7857354806526908 10.786549575600576 0 0 0
191 0 2 2.2208 2.547861699213104 4.843613105204045 10.88656626722686 0 0 0
192 0 1 -1.1104 3.8465515845065554 0.673061940761176 12.244253894339653 0 0 0
193 0 1 -1.1104 3.9272955239002703 0.5915954870912139 9.473038862285732 0 0 0
321 0 1 -1.1104 12.343245552872247 14.505745355015648 9.403121606628924 0 0 0
475 0 2 2.2208 8.146479883379119 18.726392806860677 13.572862524956403 0 0 0
359 0 2 2.2208 5.351821997927074 -0.6779899390971378 13.606627021836395 0 0 0
59 0 1 -1.1104 9.576877325518925 17.441343339372914 12.286734445787596 0 0 0
207 0 1 -1.1104 6.825552550901856 -2.1597281136616564 6.688817354178835 0 0 0
201 0 1 -1.1104 6.6472362986718005 3.541150506568983 9.523190423088442 0 0 0
205 0 1 -1.1104 9.708330630787303 -2.082646851492837 6.511057318864387 0 0 0
206 0 1 -1.1104 6.7816722706648935 -1.9811234982733716 9.545303007918225 0 0 0
56 0 1 -1.1104 9.573226175168827 3.5210549466446066 6.710557337886169 0 0 0
57 0 1 -1.1104 12.437665152665376 3.4105286282168996 6.595120343024056 0 0 0
208 0 1 -1.1104 12.422948748476726 0.6211686836658274 6.625265479755757 0 0 0
194 0 1 -1.1104 6.684311094506188 0.7403056708548778 9.293874434031865 0 0 0
200 0 1 -1.1104 6.847957446852988 3.459753295356764 12.310824048499299 0 0 0
204 0 1 -1.1104 6.62602684016694 -2.128711651874012 12.209365607897103 0 0 0
195 0 1 -1.1104 6.757119945965995 0.7392915649238223 12.224918384785786 0 0 0
199 0 1 -1.1104 9.555131673661968 0.6753258954673672 6.711294864845596 0 0 0
209 0 2 2.2208 10.91320198581134 2.210271063153963 10.772391116149794 0 0 0
210 0 1 -1.1104 12.469483832309068 -1.9216003474457573 12.182437468845217 0 0 0
211 0 1 -1.1104 12.372616859074828 3.468876512947283 12.253296695314132 0 0 0
212 0 1 -1.1104 12.284132174070034 -2.0418333107164863 9.511789492765622 0 0 0
213 0 1 -1.1104 12.33075983435584 3.5767415435688945 9.576095973400244 0 0 0
214 0 1 -1.1104 12.321735184520394 0.6981213287708745 12.18268907569949 0 0 0
215 0 2 2.2208 10.984383517558165 -0.7984029124516517 7.937374740686893 0 0 0
216 0 1 -1.1104 12.306056134761947 0.8823867342287319 9.275067354776409 0 0 0
217 0 1 -1.1104 9.571731354445584 -2.076247366053203 12.186825459304245 0 0 0
218 0 1 -1.1104 9.501782115699276 3.358400777584265 12.17665784364769 0 0 0
219 0 2 2.2208 8.13860286617182 2.012115012989899 7.956430534380066 0 0 0
220 0 1 -1.1104 9.552953462009755 -2.1682386793855106 9.31891347368605 0 0 0
221 0 1 -1.1104 9.4607712171441 3.3506550673099413 9.34898515508633 0 0 0
222 0 2 2.2208 8.196082330417505 -0.6313746123373775 10.891567795111161 0 0 0
223 0 2 2.2208 8.06661729419422 4.897571129117707 10.854408136399845 0 0 0
224 0 1 -1.1104 9.570410425610461 0.7483694865436313 12.321960079018714 0 0 0
225 0 1 -1.1104 9.575593914964095 0.5861694495022727 9.499480976022902 0 0 0
226 0 2 2.2208 10.960591383904355 4.86722368282521 8.250407198389452 0 0 0
197 0 1 -1.1104 6.756212607690081 17.29465499168721 6.808341239067464 0 0 0
369 0 2 2.2208 8.162597848580505 2.0860302965675652 13.654740862387271 0 0 0
113 0 1 -1.1104 9.52147374272186 14.613574281208418 6.711147072535166 0 0 0
232 0 1 -1.1104 3.9229293794367663 6.265613328944089 6.718575322496343 0 0 0
234 0 1 -1.1104 3.8920238751862453 9.063992582537761 6.770325863174788 0 0 0
230 0 1 -1.1104 1.1859505834649953 9.067068110314533 6.629174926073584 0 0 0
231 0 1 -1.1104 1.1879668863602952 6.25985572095777 6.685504399534224 0 0 0
236 0 2 2.2208 5.36054602110464 7.7198487822355375 10.91240527360337 0 0 0
237 0 2 2.2208 5.349580907989837 13.282874448348563 10.961479197020743 0 0 0
238 0 1 -1.1104 1.2131664497335868 9.044701360572535 12.369541452780963 0 0 0
239 0 1 -1.1104 1.1678755056131154 8.990208015655222 9.465846186986111 0 0 0
240 0 1 -1.1104 1.0771590848379202 6.20242557539568 12.194389090111368 0 0 0
241 0 1 -1.1104 1.2071687360937065 11.89676351535893 12.21502354973666 0 0 0
242 0 2 2.2208 5.266628676589492 10.467572707896363 8.126566012911438 0 0 0
243 0 1 -1.1104 1.30640487108998 6.223702118459053 9.244322836350948 0 0 0
244 0 1 -1.1104 1.1724582042254699 11.757330289331902 9.46005804413937 0 0 0
245 0 1 -1.1104 3.7991557989041547 8.984891323385279 12.228852570447263 0 0 0
246 0 2 2.2208 2.648871534399491 7.701259957520354 8.14274428248745 0 0 0
247 0 2 2.2208 2.5325408306964414 13.256761370104416 8.068442839810883 0 0 0
248 0 1 -1.1104 4.053181470839066 9.191893057610965 9.5297368785519 0 0 0
249 0 2 2.2208 2.4619845880828346 10.48268854087847 10.865689411498005 0 0 0
250 0 1 -1.1104 3.9019862963975 6.3687889012085614 12.379884085641605 0 0 0
251 0 1 -1.1104 3.839804051472755 11.7493224543693 12.212696362828273 0 0 0
252 0 1 -1.1104 3.923731424294739 6.36423871250504 9.464369022717346 0 0 0
253 0 1 -1.1104 4.006645068068313 11.833022146110228 9.563517661665001 0 0 0
8980 0 2 2.2208 -0.2282034265779798 13.322144709958819 10.90717727984536 0 0 0
388 0 2 2.2208 10.884766974142902 -0.6322666679690392 13.58182980160985 0 0 0
292 0 1 -1.1104 12.413267814677551 17.388494234012978 12.335372414069008 0 0 0
9544 0 2 2.2208 -0.2091390875509243 4.8274546026310405 13.666166651106627 0 0 0
264 0 1 -1.1104 6.833703388018249 11.976003295320629 9.53450634880274 0 0 0
255 0 1 -1.1104 6.88048339875772 9.124543468390685 9.533082645752376 0 0 0
257 0 1 -1.1104 6.641993855552138 9.08278053350453 12.411774311231985 0 0 0
254 0 1 -1.1104 6.635037469930358 11.901241711372016 12.23245910329572 0 0 0
259 0 1 -1.1104 6.80389909164844 6.180452827333056 12.26795005318118 0 0 0
266 0 1 -1.1104 9.477297517128768 11.892689541090695 6.642444925169988 0 0 0
267 0 1 -1.1104 12.418239494237373 11.900754006695458 6.722663153144744 0 0 0
256 0 1 -1.1104 6.721739315363126 6.3905236334962074 9.488838507048632 0 0 0
268 0 1 -1.1104 12.327360316935996 9.106653597830825 6.676419013172155 0 0 0
271 0 1 -1.1104 9.538664003422006 11.972405614389535 9.422908981584234 0 0 0
272 0 1 -1.1104 9.592751665629613 6.1456530983305955 9.509749566212989 0 0 0
273 0 1 -1.1104 9.402385767181267 11.931284342284647 12.288560270843647 0 0 0
274 0 1 -1.1104 9.585097863179183 6.256983858454843 12.314230475089666 0 0 0
275 0 2 2.2208 8.230479596675742 10.527326420204835 10.828127983891394 0 0 0
276 0 1 -1.1104 9.52942540470811 9.084212818276809 9.396762922652796 0 0 0
277 0 2 2.2208 8.13168880341938 13.316059909317246 8.020319899557693 0 0 0
278 0 2 2.2208 8.150711823200641 7.6411465931043505 8.16996867189056 0 0 0
279 0 2 2.2208 10.957792760825049 7.649419605895718 11.114550261133978 0 0 0
280 0 2 2.2208 10.886880900052876 13.288064877045944 10.887060697763587 0 0 0
281 0 1 -1.1104 12.408476204116655 9.04910515616308 12.482301592751105 0 0 0
282 0 1 -1.1104 12.345560113434637 8.965115427538864 9.576572048829297 0 0 0
283 0 1 -1.1104 12.431637046751206 6.212974140339147 12.146016611364132 0 0 0
284 0 1 -1.1104 12.275694754913504 11.859226450564043 12.306549948477391 0 0 0
285 0 2 2.2208 10.869615305989518 10.626940371719586 8.05274600908996 0 0 0
286 0 1 -1.1104 12.225566188709426 6.377513394160428 9.562269183178055 0 0 0
287 0 1 -1.1104 12.123931887527528 11.716400229971947 9.533637671979582 0 0 0
288 0 1 -1.1104 9.46843664773656 9.157022880272214 12.199813591052882 0 0 0
196 0 1 -1.1104 9.542030487339298 14.675426296728704 9.51716080712308 0 0 0
8923 0 2 2.2208 -0.16860193095585493 21.5935350046291 8.088143060494161 0 0 0
138 0 1 -1.1104 3.8735695349586363 17.34095840131179 6.638276037237467 0 0 0
139 0 1 -1.1104 3.8216083210107348 14.553637328091412 6.7884150944446535 0 0 0
137 0 1 -1.1104 4.06072458147328 20.203622447229076 6.695169161998196 0 0 0
298 0 1 -1.1104 1.1106935731643706 17.40620306530445 6.73282549645894 0 0 0
301 0 1 -1.1104 1.1462080171653404 14.738721426575896 12.334824091157158 0 0 0
302 0 2 2.2208 5.302253019706629 18.865837301651652 10.780006539212131 0 0 0
303 0 1 -1.1104 3.80934768302162 20.113907433760325 9.4723217590879 0 0 0
304 0 1 -1.1104 3.9375672347040305 17.443654914262698 9.40308620881419 0 0 0
305 0 2 2.2208 2.4529910833028894 18.795777016764763 8.090575190683557 0 0 0
306 0 1 -1.1104 3.986695268857105 14.721485497928109 9.552138916908007 0 0 0
307 0 1 -1.1104 1.0438392288755507 17.54948561136054 12.28608337490363 0 0 0
308 0 2 2.2208 2.541088206256768 16.156627350436374 10.902310911212094 0 0 0
309 0 2 2.2208 2.51597397905154 21.803375475551316 10.895873066671339 0 0 0
310 0 1 -1.1104 3.916456190789462 17.52530565143251 12.245443018080069 0 0 0
311 0 1 -1.1104 3.926239433967841 20.31128756268321 12.269313527747416 0 0 0
312 0 1 -1.1104 3.972312214495491 14.566386602377325 12.191685591406676 0 0 0
313 0 1 -1.1104 1.0622239753647742 20.20772922359036 9.451392317879488 0 0 0
314 0 1 -1.1104 1.0301013771242207 17.47668250293002 9.59421966032766 0 0 0
315 0 2 2.2208 5.3664839884443944 21.467435899862128 8.042990611063429 0 0 0
316 0 1 -1.1104 1.227182113527089 14.694044948538227 9.500981523863324 0 0 0
317 0 2 2.2208 5.350938225829709 15.946199015518927 8.227940652403191 0 0 0
318 0 1 -1.1104 1.186384707815378 20.3228374667725 12.230771974202089 0 0 0
166 0 1 -1.1104 6.798079936758888 14.663551757996762 9.534039180886214 0 0 0
289 0 2 2.2208 10.895782408253895 16.16844766284441 8.073310719206923 0 0 0
293 0 1 -1.1104 12.33477601741634 17.412272393361064 9.41336096260318 0 0 0
295 0 1 -1.1104 6.677404490679145 17.36321827973057 12.290561239156672 0 0 0
320 0 1 -1.1104 9.55485133198131 20.145050939571384 12.184957893991594 0 0 0
171 0 1 -1.1104 9.613735075620095 14.745970128815154 12.293237494912322 0 0 0
60 0 2 2.2208 8.099716475937536 21.716389246801114 10.992145917240283 0 0 0
296 0 1 -1.1104 6.731485519484486 20.31200298002682 6.692272511463789 0 0 0
322 0 1 -1.1104 12.251372691215414 17.426969885906388 6.747457981887339 0 0 0
260 0 1 -1.1104 12.314598211830567 20.205664154628803 6.597506626549859 0 0 0
294 0 1 -1.1104 12.229880523660299 20.250392174277394 9.386222623346251 0 0 0
168 0 1 -1.1104 12.304748240867646 20.28457443549469 12.242584258101544 0 0 0
229 0 2 2.2208 8.138332596142918 16.014405537638996 11.011487176052293 0 0 0
228 0 1 -1.1104 9.479083238076962 17.565998105533307 6.609139917160857 0 0 0
58 0 2 2.2208 8.082544287364966 18.780068064198762 8.126258417183955 0 0 0
290 0 2 2.2208 10.765447150921457 21.64834856565733 8.158488500424648 0 0 0
227 0 1 -1.1104 9.378374637362061 20.205474414445046 9.578957202723036 0 0 0
261 0 1 -1.1104 12.253498497224532 14.622200917837777 12.181724583110546 0 0 0
319 0 1 -1.1104 12.264162715225623 14.681178034998224 6.6228214512272965 0 0 0
169 0 2 2.2208 10.963542135038788 18.79816372303289 10.917243013332579 0 0 0
397 0 2 2.2208 11.016515136997334 4.765590068321513 13.537931437789817 0 0 0
445 0 2 2.2208 8.093273115688293 7.7556455833316065 13.627200294847105 0 0 0
416 0 2 2.2208 5.286958668225647 10.555140427343854 13.639373808075069 0 0 0
8929 0 2 2.2208 -0.26098589621447543 13.242663152337462 -0.2393187425253359 0 0 0
9204 0 2 2.2208 -0.1369894756797096 7.614604442246216 -0.20425985238833988 0 0 0
421 0 2 2.2208 2.5725519266221983 7.697611225978803 13.580348571632314 0 0 0
500 0 2 2.2208 10.851203854741778 21.615081988942766 13.634412008197806 0 0 0
339 0 2 2.2208 5.357242537718379 2.0605289481013362 16.476074547273033 0 0 0
340 0 1 -1.1104 1.2048151507951563 -2.047386556422905 17.8971114205464 0 0 0
341 0 1 -1.1104 1.1636427253802837 3.4579021094502083 17.8187881185257 0 0 0
342 0 1 -1.1104 1.2521977294149575 -2.0143594831397675 15.011255777690069 0 0 0
343 0 1 -1.1104 1.209586474832188 3.4800393817584707 15.094625688361402 0 0 0
344 0 1 -1.1104 0.9514488299571849 0.6564523621354037 17.715918090261273 0 0 0
345 0 2 2.2208 5.297913452380021 -0.6420732822924679 19.242661654037462 0 0 0
346 0 2 2.2208 5.370032832924385 4.935006786895479 19.304363622466397 0 0 0
347 0 1 -1.1104 1.324444557990261 0.6786306707757084 14.940317976349752 0 0 0
348 0 1 -1.1104 3.9141977984067586 -1.9973553633791448 17.749059542349922 0 0 0
349 0 1 -1.1104 4.033854019977181 3.5175455685494628 17.79594239905597 0 0 0
350 0 2 2.2208 2.683473481667496 2.2298251977936148 19.17084211127978 0 0 0
351 0 1 -1.1104 3.9539890108400733 -2.0056762048836183 15.002571443865408 0 0 0
352 0 1 -1.1104 3.8243078366049548 3.586842507880225 15.058509422213705 0 0 0
353 0 2 2.2208 2.4794157946651674 -0.618316809020449 16.448597975217687 0 0 0
354 0 2 2.2208 2.590695246991902 4.824075798686118 16.49373630689434 0 0 0
355 0 1 -1.1104 3.822167866155997 0.8355687734089352 17.73742985539754 0 0 0
356 0 1 -1.1104 4.112611014555137 0.8652802751893047 14.967655775967451 0 0 0
9543 0 2 2.2208 -0.09506461705201724 4.988413326039617 19.25235069096906 0 0 0
9537 0 2 2.2208 -0.17525796342871514 1.995876275400247 16.38874349335276 0 0 0
509 0 1 -1.1104 3.9744665945992668 3.618267391547571 20.597099348182237 0 0 0
9545 0 2 2.2208 -0.24831171911068642 -0.6369850829495118 19.196723236893067 0 0 0
9541 0 2 2.2208 -0.11149157479043925 7.566067601106498 16.42035558557464 0 0 0
503 0 1 -1.1104 1.4646988858517382 0.8475181243569235 20.421014555523143 0 0 0
505 0 1 -1.1104 3.9965486963401857 -2.168592507188853 20.54557375516836 0 0 0
504 0 1 -1.1104 1.1576004826502129 3.3394694104969553 20.569793745538597 0 0 0
508 0 1 -1.1104 1.103741881774127 -2.1177934716606073 20.625011986336723 0 0 0
368 0 2 2.2208 13.630995521718653 18.839215643214693 19.3123114592829 0 0 0
366 0 1 -1.1104 6.644897511282845 -2.0639549421564425 17.832024028654995 0 0 0
529 0 1 -1.1104 6.736838402994831 3.519121243270942 20.625375426576767 0 0 0
361 0 1 -1.1104 6.826495484620968 0.5541002339999728 15.065381737395608 0 0 0
357 0 1 -1.1104 6.806136042218909 3.4272331596515944 15.110840397752195 0 0 0
360 0 1 -1.1104 6.740049606736736 0.687529492110448 17.781611458046967 0 0 0
362 0 1 -1.1104 6.902608523146415 -2.1536166840494566 15.160855265234028 0 0 0
364 0 1 -1.1104 6.763264526374346 3.4756279797328116 17.87973546524488 0 0 0
370 0 2 2.2208 11.101912024044308 2.115452609135127 16.39850288365832 0 0 0
371 0 1 -1.1104 12.351079824039743 -2.2270150230721266 17.683548666818705 0 0 0
372 0 1 -1.1104 12.46094817739472 3.542342521496986 17.845956652614323 0 0 0
373 0 1 -1.1104 12.357694661286592 -2.0659850374728084 14.88481511501984 0 0 0
374 0 1 -1.1104 12.43400103510757 3.5249397060338077 15.063402124947839 0 0 0
375 0 1 -1.1104 12.439571913208331 0.647308351274308 17.653940806732642 0 0 0
376 0 2 2.2208 10.963901761438292 -0.7049272740150507 19.26416479978966 0 0 0
377 0 2 2.2208 10.904430218546104 4.822566622512393 19.26229983199752 0 0 0
378 0 1 -1.1104 12.380690054917403 0.7155797440208699 15.047308143388657 0 0 0
379 0 1 -1.1104 9.608214801328995 -2.1681889020530423 17.89353467121348 0 0 0
380 0 1 -1.1104 9.625589449633974 3.387564744049411 17.830074596840454 0 0 0
381 0 2 2.2208 8.246205652476382 2.1122692697020056 19.218595444175342 0 0 0
382 0 1 -1.1104 9.544519198622975 -2.075115160235197 14.938247088666406 0 0 0