LAMMPS (29 Oct 2020)
OMP_NUM_THREADS environment is not set. Defaulting to 1 thread. (../comm.cpp:94)
  using 1 OpenMP thread(s) per MPI task
OMP_NUM_THREADS environment is not set. Defaulting to 1 thread. (../comm.cpp:94)
  using 1 OpenMP thread(s) per MPI task
Reading data file ...
  orthogonal box = (-0.27717828 -3.4472206 -0.27717828) to (27.617178 331.52722 27.617178)
  2 by 13 by 2 MPI processor grid
  reading atoms ...
  18000 atoms
  reading velocities ...
  18000 velocities
Finding 1-2 1-3 1-4 neighbors ...
  special bond factors lj:    0.0      0.0      0.0     
  special bond factors coul:  0.0      0.0      0.0     
     0 = max # of 1-2 neighbors
     0 = max # of 1-3 neighbors
     0 = max # of 1-4 neighbors
     1 = max # of special neighbors
  special bonds CPU = 0.004 seconds
  read_data CPU = 0.071 seconds
99 atoms in group sphere
4 atoms in group oxygen
13 atoms in group thorium
86 atoms in group 1
90 atoms in group cluster
6000 atoms in group Th
12000 atoms in group O
30 atoms in group Th_group
60 atoms in group O_group
Setting atom values ...
  8 settings made for type/subset
8 atoms in group Xe
82 atoms in group delete
WARNING: Ignoring 'compress yes' for molecular system (../delete_atoms.cpp:125)
Deleted 82 atoms, new total = 17918
99 atoms in group sphere
4 atoms in group oxygen
13 atoms in group thorium
86 atoms in group 1
90 atoms in group cluster
5970 atoms in group Th
11940 atoms in group O
30 atoms in group Th_group
60 atoms in group O_group
Setting atom values ...
  8 settings made for type/subset
16 atoms in group Xe
82 atoms in group delete
WARNING: Ignoring 'compress yes' for molecular system (../delete_atoms.cpp:125)
Deleted 82 atoms, new total = 17836
99 atoms in group sphere
4 atoms in group oxygen
13 atoms in group thorium
86 atoms in group 1
90 atoms in group cluster
5940 atoms in group Th
11880 atoms in group O
30 atoms in group Th_group
60 atoms in group O_group
Setting atom values ...
  8 settings made for type/subset
24 atoms in group Xe
82 atoms in group delete
WARNING: Ignoring 'compress yes' for molecular system (../delete_atoms.cpp:125)
Deleted 82 atoms, new total = 17754
99 atoms in group sphere
4 atoms in group oxygen
13 atoms in group thorium
86 atoms in group 1
90 atoms in group cluster
5910 atoms in group Th
11820 atoms in group O
30 atoms in group Th_group
60 atoms in group O_group
Setting atom values ...
  8 settings made for type/subset
32 atoms in group Xe
82 atoms in group delete
WARNING: Ignoring 'compress yes' for molecular system (../delete_atoms.cpp:125)
Deleted 82 atoms, new total = 17672
Setting atom values ...
  11760 settings made for charge
Setting atom values ...
  5880 settings made for charge
Setting atom values ...
  32 settings made for charge
WARNING: 13 of 1000 force values in table Xe-Xe are inconsistent with -dE/dr.
  Should only be flagged at inflection points (../pair_table.cpp:461)
WARNING: 2 of 1000 force values in table Xe-O are inconsistent with -dE/dr.
  Should only be flagged at inflection points (../pair_table.cpp:461)
WARNING: 2 of 1000 force values in table Xe-Th are inconsistent with -dE/dr.
  Should only be flagged at inflection points (../pair_table.cpp:461)
PPPM initialization ...
  using 12-bit tables for long-range coulomb (../kspace.cpp:328)
  G vector (1/distance) = 0.29911918
  grid = 40 240 40
  stencil order = 5
  estimated absolute RMS force accuracy = 0.00015363825
  estimated relative force accuracy = 1.0669586e-05
  using single precision MKL FFT
  3d grid and FFT values/proc = 18225 7600
Neighbor list info ...
  update every 1 steps, delay 0 steps, check yes
  max neighbors/atom: 2000, page size: 100000
  master list distance cutoff = 13
  ghost atom cutoff = 13
  binsize = 6.5, bins = 5 52 5
  3 neighbor lists, perpetual/occasional/extra = 3 0 0
  (1) pair coul/long, perpetual
      attributes: half, newton on
      pair build: half/bin/newton
      stencil: half/bin/3d/newton
      bin: standard
  (2) pair eam/alloy, perpetual, skip from (1)
      attributes: half, newton on
      pair build: skip
      stencil: none
      bin: none
  (3) pair table, perpetual, skip from (1)
      attributes: half, newton on
      pair build: skip
      stencil: none
      bin: none
Setting up cg style minimization ...
  Unit style    : metal
  Current step  : 0
WARNING: Energy due to 3 extra global DOFs will be included in minimizer energies
Per MPI rank memory allocation (min/avg/max) = 10.35 | 10.95 | 11.16 Mbytes
Step Temp E_pair E_mol TotEng Press Volume 
       0            0   -230738.58            0   -230738.58     1014.367    260641.98 
     116            0   -231416.76            0   -231416.76    270.22994    261386.05 
Loop time of 2.33617 on 52 procs for 116 steps with 17672 atoms

99.2% CPU use with 52 MPI tasks x 1 OpenMP threads

Minimization stats:
  Stopping criterion = linesearch alpha is zero
  Energy initial, next-to-last, final = 
     -230738.578247301  -231416.755788671  -231416.755788671
  Force two-norm initial, final = 731.93022 82.009614
  Force max component initial, final = 551.70393 51.773935
  Final line search alpha, max atom move = 1.8370590e-12 9.5111774e-11
  Iterations, force evaluations = 116 205

MPI task timing breakdown:
Section |  min time  |  avg time  |  max time  |%varavg| %total
---------------------------------------------------------------
Pair    | 1.3251     | 1.4179     | 1.5195     |   3.3 | 60.69
Bond    | 1.5631e-05 | 2.5482e-05 | 4.6353e-05 |   0.0 |  0.00
Kspace  | 0.34178    | 0.44529    | 0.53847    |   5.9 | 19.06
Neigh   | 0.0050739  | 0.0065567  | 0.0084151  |   0.9 |  0.28
Comm    | 0.033977   | 0.035131   | 0.036548   |   0.3 |  1.50
Output  | 0          | 0          | 0          |   0.0 |  0.00
Modify  | 0          | 0          | 0          |   0.0 |  0.00
Other   |            | 0.4313     |            |       | 18.46

Nlocal:        339.846 ave         412 max         286 min
Histogram: 9 3 1 18 6 2 0 2 9 2
Nghost:        5548.79 ave        5744 max        5343 min
Histogram: 4 8 4 3 4 7 6 6 3 7
Neighs:       107907.0 ave      132891 max       91824 min
Histogram: 5 9 5 16 2 4 3 4 2 2

Total # of neighbors = 5611140
Ave neighs/atom = 317.51584
Ave special neighs/atom = 0.0000000
Neighbor list builds = 2
Dangerous builds = 0
Resetting atom IDs ...
PPPM initialization ...
  using 12-bit tables for long-range coulomb (../kspace.cpp:328)
  G vector (1/distance) = 0.29906825
  grid = 40 240 40
  stencil order = 5
  estimated absolute RMS force accuracy = 0.00015403876
  estimated relative force accuracy = 1.06974e-05
  using single precision MKL FFT
  3d grid and FFT values/proc = 18225 7600
Neighbor list info ...
  update every 1 steps, delay 0 steps, check yes
  max neighbors/atom: 2000, page size: 100000
  master list distance cutoff = 13
  ghost atom cutoff = 13
  binsize = 6.5, bins = 5 52 5
  3 neighbor lists, perpetual/occasional/extra = 3 0 0
  (1) pair coul/long, perpetual
      attributes: half, newton on
      pair build: half/bin/newton
      stencil: half/bin/3d/newton
      bin: standard
  (2) pair eam/alloy, perpetual, skip from (1)
      attributes: half, newton on
      pair build: skip
      stencil: none
      bin: none
  (3) pair table, perpetual, skip from (1)
      attributes: half, newton on
      pair build: skip
      stencil: none
      bin: none
Finding 1-2 1-3 1-4 neighbors ...
  special bond factors lj:    0.0      0.0      0.0     
  special bond factors coul:  0.0      0.0      0.0     
     0 = max # of 1-2 neighbors
     0 = max # of 1-3 neighbors
     0 = max # of 1-4 neighbors
     1 = max # of special neighbors
  special bonds CPU = 0.001 seconds
PPPM initialization ...
  using 12-bit tables for long-range coulomb (../kspace.cpp:328)
  G vector (1/distance) = 0.29906825
  grid = 40 240 40
  stencil order = 5
  estimated absolute RMS force accuracy = 0.00015403876
  estimated relative force accuracy = 1.06974e-05
  using single precision MKL FFT
  3d grid and FFT values/proc = 18225 7600
Neighbor list info ...
  update every 1 steps, delay 0 steps, check yes
  max neighbors/atom: 2000, page size: 100000
  master list distance cutoff = 13
  ghost atom cutoff = 13
  binsize = 6.5, bins = 5 52 5
  3 neighbor lists, perpetual/occasional/extra = 3 0 0
  (1) pair coul/long, perpetual
      attributes: half, newton on
      pair build: half/bin/newton
      stencil: half/bin/3d/newton
      bin: standard
  (2) pair eam/alloy, perpetual, skip from (1)
      attributes: half, newton on
      pair build: skip
      stencil: none
      bin: none
  (3) pair table, perpetual, skip from (1)
      attributes: half, newton on
      pair build: skip
      stencil: none
      bin: none
Setting up Verlet run ...
  Unit style    : metal
  Current step  : 116
  Time step     : 0.001
Per MPI rank memory allocation (min/avg/max) = 9.224 | 9.841 | 10.04 Mbytes
Step Dt Time Atoms Temp PotEng KinEng Press Volume 
     116        0.001            0    17672          600   -231416.76    1370.4936    5870.4479    261386.05 
   10000        0.001        9.884    17672    601.45671   -230440.71     1373.821     964.0388    264937.26 
   20000        0.001       19.884    17672    598.80415   -230446.11    1367.7621     153.5541    264896.75 
   30000        0.001       29.884    17672    604.39462   -230445.42    1380.5316    40.378755    264997.25 
   40000        0.001       39.884    17672    597.78089   -230445.14    1365.4248    5.6800811    264930.46 
   50000        0.001       49.884    17672    603.66287   -230447.84    1378.8602    286.24075    264912.39 
   60000        0.001       59.884    17672     598.8376   -230447.29    1367.8385    249.05182     264959.3 
   70000        0.001       69.884    17672    603.21581    -230452.9     1377.839   -538.16623    265029.62 
   80000        0.001       79.884    17672    597.58527   -230447.75     1364.978   -220.08316    264958.63 
   90000        0.001       89.884    17672    608.39065   -230456.85    1389.6592    428.97233    264924.26 
  100000        0.001       99.884    17672    599.09006   -230435.03    1368.4152    509.32007    264939.42 
  100116        0.001          100    17672    599.28498   -230431.06    1368.8604   -43.237057    265011.77 
Loop time of 832.444 on 52 procs for 100000 steps with 17672 atoms

Performance: 10.379 ns/day, 2.312 hours/ns, 120.128 timesteps/s
99.8% CPU use with 52 MPI tasks x 1 OpenMP threads

MPI task timing breakdown:
Section |  min time  |  avg time  |  max time  |%varavg| %total
---------------------------------------------------------------
Pair    | 523.1      | 537.98     | 564.01     |  42.4 | 64.63
Bond    | 0.0091104  | 0.01444    | 0.02212    |   1.9 |  0.00
Kspace  | 144.44     | 170.71     | 185.72     |  75.8 | 20.51
Neigh   | 2.9991     | 3.2809     | 3.563      |   6.7 |  0.39
Comm    | 15.715     | 16.353     | 16.915     |   7.7 |  1.96
Output  | 0.048257   | 0.048301   | 0.050139   |   0.1 |  0.01
Modify  | 91.99      | 96.06      | 100.96     |  22.8 | 11.54
Other   |            | 7.999      |            |       |  0.96

Nlocal:        339.846 ave         367 max         320 min
Histogram: 2 1 9 15 12 7 2 0 2 2
Nghost:        5522.15 ave        5704 max        5367 min
Histogram: 11 5 4 0 10 6 0 4 4 8
Neighs:       107184.0 ave      117457 max       95371 min
Histogram: 2 4 2 3 4 18 11 3 2 3

Total # of neighbors = 5573580
Ave neighs/atom = 315.39045
Ave special neighs/atom = 0.0000000
Neighbor list builds = 1044
Dangerous builds = 0
System init for write_data ...
PPPM initialization ...
  using 12-bit tables for long-range coulomb (../kspace.cpp:328)
  G vector (1/distance) = 0.29882189
  grid = 40 240 40
  stencil order = 5
  estimated absolute RMS force accuracy = 0.00015598209
  estimated relative force accuracy = 1.0832356e-05
  using single precision MKL FFT
  3d grid and FFT values/proc = 18225 7600
Neighbor list info ...
  update every 1 steps, delay 0 steps, check yes
  max neighbors/atom: 2000, page size: 100000
  master list distance cutoff = 13
  ghost atom cutoff = 13
  binsize = 6.5, bins = 5 52 5
  3 neighbor lists, perpetual/occasional/extra = 3 0 0
  (1) pair coul/long, perpetual
      attributes: half, newton on
      pair build: half/bin/newton
      stencil: half/bin/3d/newton
      bin: standard
  (2) pair eam/alloy, perpetual, skip from (1)
      attributes: half, newton on
      pair build: skip
      stencil: none
      bin: none
  (3) pair table, perpetual, skip from (1)
      attributes: half, newton on
      pair build: skip
      stencil: none
      bin: none
Total wall time: 0:13:55
