LAMMPS (29 Oct 2020)
OMP_NUM_THREADS environment is not set. Defaulting to 1 thread. (../comm.cpp:94)
  using 1 OpenMP thread(s) per MPI task
OMP_NUM_THREADS environment is not set. Defaulting to 1 thread. (../comm.cpp:94)
  using 1 OpenMP thread(s) per MPI task
Reading data file ...
  orthogonal box = (-0.27717828 -3.4472206 -0.27717828) to (27.617178 331.52722 27.617178)
  2 by 13 by 2 MPI processor grid
  reading atoms ...
  18000 atoms
  reading velocities ...
  18000 velocities
Finding 1-2 1-3 1-4 neighbors ...
  special bond factors lj:    0.0      0.0      0.0     
  special bond factors coul:  0.0      0.0      0.0     
     0 = max # of 1-2 neighbors
     0 = max # of 1-3 neighbors
     0 = max # of 1-4 neighbors
     1 = max # of special neighbors
  special bonds CPU = 0.004 seconds
  read_data CPU = 0.071 seconds
45 atoms in group sphere
8 atoms in group oxygen
1 atoms in group thorium
9 atoms in group 1
36 atoms in group cluster
6000 atoms in group Th
12000 atoms in group O
12 atoms in group Th_group
24 atoms in group O_group
Setting atom values ...
  12 settings made for type/subset
12 atoms in group Xe
24 atoms in group delete
WARNING: Ignoring 'compress yes' for molecular system (../delete_atoms.cpp:125)
Deleted 24 atoms, new total = 17976
45 atoms in group sphere
8 atoms in group oxygen
1 atoms in group thorium
9 atoms in group 1
36 atoms in group cluster
5988 atoms in group Th
11976 atoms in group O
12 atoms in group Th_group
24 atoms in group O_group
Setting atom values ...
  12 settings made for type/subset
24 atoms in group Xe
24 atoms in group delete
WARNING: Ignoring 'compress yes' for molecular system (../delete_atoms.cpp:125)
Deleted 24 atoms, new total = 17952
45 atoms in group sphere
8 atoms in group oxygen
1 atoms in group thorium
9 atoms in group 1
36 atoms in group cluster
5976 atoms in group Th
11952 atoms in group O
12 atoms in group Th_group
24 atoms in group O_group
Setting atom values ...
  12 settings made for type/subset
36 atoms in group Xe
24 atoms in group delete
WARNING: Ignoring 'compress yes' for molecular system (../delete_atoms.cpp:125)
Deleted 24 atoms, new total = 17928
45 atoms in group sphere
8 atoms in group oxygen
1 atoms in group thorium
9 atoms in group 1
36 atoms in group cluster
5964 atoms in group Th
11928 atoms in group O
12 atoms in group Th_group
24 atoms in group O_group
Setting atom values ...
  12 settings made for type/subset
48 atoms in group Xe
24 atoms in group delete
WARNING: Ignoring 'compress yes' for molecular system (../delete_atoms.cpp:125)
Deleted 24 atoms, new total = 17904
45 atoms in group sphere
8 atoms in group oxygen
1 atoms in group thorium
9 atoms in group 1
36 atoms in group cluster
5952 atoms in group Th
11904 atoms in group O
12 atoms in group Th_group
24 atoms in group O_group
Setting atom values ...
  12 settings made for type/subset
60 atoms in group Xe
24 atoms in group delete
WARNING: Ignoring 'compress yes' for molecular system (../delete_atoms.cpp:125)
Deleted 24 atoms, new total = 17880
45 atoms in group sphere
8 atoms in group oxygen
1 atoms in group thorium
9 atoms in group 1
36 atoms in group cluster
5940 atoms in group Th
11880 atoms in group O
12 atoms in group Th_group
24 atoms in group O_group
Setting atom values ...
  12 settings made for type/subset
72 atoms in group Xe
24 atoms in group delete
WARNING: Ignoring 'compress yes' for molecular system (../delete_atoms.cpp:125)
Deleted 24 atoms, new total = 17856
45 atoms in group sphere
8 atoms in group oxygen
1 atoms in group thorium
9 atoms in group 1
36 atoms in group cluster
5928 atoms in group Th
11856 atoms in group O
12 atoms in group Th_group
24 atoms in group O_group
Setting atom values ...
  12 settings made for type/subset
84 atoms in group Xe
24 atoms in group delete
WARNING: Ignoring 'compress yes' for molecular system (../delete_atoms.cpp:125)
Deleted 24 atoms, new total = 17832
45 atoms in group sphere
8 atoms in group oxygen
1 atoms in group thorium
9 atoms in group 1
36 atoms in group cluster
5916 atoms in group Th
11832 atoms in group O
12 atoms in group Th_group
24 atoms in group O_group
Setting atom values ...
  12 settings made for type/subset
96 atoms in group Xe
24 atoms in group delete
WARNING: Ignoring 'compress yes' for molecular system (../delete_atoms.cpp:125)
Deleted 24 atoms, new total = 17808
45 atoms in group sphere
8 atoms in group oxygen
1 atoms in group thorium
9 atoms in group 1
36 atoms in group cluster
5904 atoms in group Th
11808 atoms in group O
12 atoms in group Th_group
24 atoms in group O_group
Setting atom values ...
  12 settings made for type/subset
108 atoms in group Xe
24 atoms in group delete
WARNING: Ignoring 'compress yes' for molecular system (../delete_atoms.cpp:125)
Deleted 24 atoms, new total = 17784
45 atoms in group sphere
8 atoms in group oxygen
1 atoms in group thorium
9 atoms in group 1
36 atoms in group cluster
5892 atoms in group Th
11784 atoms in group O
12 atoms in group Th_group
24 atoms in group O_group
Setting atom values ...
  12 settings made for type/subset
120 atoms in group Xe
24 atoms in group delete
WARNING: Ignoring 'compress yes' for molecular system (../delete_atoms.cpp:125)
Deleted 24 atoms, new total = 17760
Setting atom values ...
  11760 settings made for charge
Setting atom values ...
  5880 settings made for charge
Setting atom values ...
  120 settings made for charge
WARNING: 13 of 1000 force values in table Xe-Xe are inconsistent with -dE/dr.
  Should only be flagged at inflection points (../pair_table.cpp:461)
WARNING: 2 of 1000 force values in table Xe-O are inconsistent with -dE/dr.
  Should only be flagged at inflection points (../pair_table.cpp:461)
WARNING: 2 of 1000 force values in table Xe-Th are inconsistent with -dE/dr.
  Should only be flagged at inflection points (../pair_table.cpp:461)
PPPM initialization ...
  using 12-bit tables for long-range coulomb (../kspace.cpp:328)
  G vector (1/distance) = 0.29911239
  grid = 40 240 40
  stencil order = 5
  estimated absolute RMS force accuracy = 0.00015328544
  estimated relative force accuracy = 1.0645085e-05
  using single precision MKL FFT
  3d grid and FFT values/proc = 18225 7600
Neighbor list info ...
  update every 1 steps, delay 0 steps, check yes
  max neighbors/atom: 2000, page size: 100000
  master list distance cutoff = 13
  ghost atom cutoff = 13
  binsize = 6.5, bins = 5 52 5
  3 neighbor lists, perpetual/occasional/extra = 3 0 0
  (1) pair coul/long, perpetual
      attributes: half, newton on
      pair build: half/bin/newton
      stencil: half/bin/3d/newton
      bin: standard
  (2) pair eam/alloy, perpetual, skip from (1)
      attributes: half, newton on
      pair build: skip
      stencil: none
      bin: none
  (3) pair table, perpetual, skip from (1)
      attributes: half, newton on
      pair build: skip
      stencil: none
      bin: none
Setting up cg style minimization ...
  Unit style    : metal
  Current step  : 0
WARNING: Energy due to 3 extra global DOFs will be included in minimizer energies
Per MPI rank memory allocation (min/avg/max) = 10.35 | 10.95 | 11.16 Mbytes
Step Temp E_pair E_mol TotEng Press Volume 
       0            0    -230967.8            0    -230967.8    4947.9423    260641.98 
     204            0   -231546.13            0   -231546.13    49.372982    261828.78 
Loop time of 4.03473 on 52 procs for 204 steps with 17760 atoms

99.5% CPU use with 52 MPI tasks x 1 OpenMP threads

Minimization stats:
  Stopping criterion = linesearch alpha is zero
  Energy initial, next-to-last, final = 
     -230967.804101409  -231546.126899633  -231546.126899633
  Force two-norm initial, final = 1435.9712 38.187321
  Force max component initial, final = 998.23532 28.368494
  Final line search alpha, max atom move = 5.1978911e-12 1.4745634e-10
  Iterations, force evaluations = 204 370

MPI task timing breakdown:
Section |  min time  |  avg time  |  max time  |%varavg| %total
---------------------------------------------------------------
Pair    | 2.3834     | 2.4847     | 2.6057     |   4.0 | 61.58
Bond    | 3.241e-05  | 5.0572e-05 | 7.283e-05  |   0.0 |  0.00
Kspace  | 0.59816    | 0.72121    | 0.82431    |   7.5 | 17.88
Neigh   | 0.0056476  | 0.0063919  | 0.0072869  |   0.6 |  0.16
Comm    | 0.059713   | 0.062736   | 0.064803   |   0.5 |  1.55
Output  | 0          | 0          | 0          |   0.0 |  0.00
Modify  | 0          | 0          | 0          |   0.0 |  0.00
Other   |            | 0.7597     |            |       | 18.83

Nlocal:        341.538 ave         395 max         300 min
Histogram: 6 9 4 4 7 6 7 4 1 4
Nghost:        5577.62 ave        5768 max        5409 min
Histogram: 3 8 7 2 6 6 9 5 4 2
Neighs:       108803.0 ave      127288 max       94134 min
Histogram: 8 6 7 2 2 10 8 3 2 4

Total # of neighbors = 5657758
Ave neighs/atom = 318.56745
Ave special neighs/atom = 0.0000000
Neighbor list builds = 2
Dangerous builds = 0
Resetting atom IDs ...
PPPM initialization ...
  using 12-bit tables for long-range coulomb (../kspace.cpp:328)
  G vector (1/distance) = 0.29903374
  grid = 40 240 40
  stencil order = 5
  estimated absolute RMS force accuracy = 0.00015389086
  estimated relative force accuracy = 1.0687128e-05
  using single precision MKL FFT
  3d grid and FFT values/proc = 18225 7600
Neighbor list info ...
  update every 1 steps, delay 0 steps, check yes
  max neighbors/atom: 2000, page size: 100000
  master list distance cutoff = 13
  ghost atom cutoff = 13
  binsize = 6.5, bins = 5 52 5
  3 neighbor lists, perpetual/occasional/extra = 3 0 0
  (1) pair coul/long, perpetual
      attributes: half, newton on
      pair build: half/bin/newton
      stencil: half/bin/3d/newton
      bin: standard
  (2) pair eam/alloy, perpetual, skip from (1)
      attributes: half, newton on
      pair build: skip
      stencil: none
      bin: none
  (3) pair table, perpetual, skip from (1)
      attributes: half, newton on
      pair build: skip
      stencil: none
      bin: none
Finding 1-2 1-3 1-4 neighbors ...
  special bond factors lj:    0.0      0.0      0.0     
  special bond factors coul:  0.0      0.0      0.0     
     0 = max # of 1-2 neighbors
     0 = max # of 1-3 neighbors
     0 = max # of 1-4 neighbors
     1 = max # of special neighbors
  special bonds CPU = 0.001 seconds
WARNING: Shell command 'mkdir' failed with error 'File exists' (../input.cpp:1197)
PPPM initialization ...
  using 12-bit tables for long-range coulomb (../kspace.cpp:328)
  G vector (1/distance) = 0.29903374
  grid = 40 240 40
  stencil order = 5
  estimated absolute RMS force accuracy = 0.00015389086
  estimated relative force accuracy = 1.0687128e-05
  using single precision MKL FFT
  3d grid and FFT values/proc = 18225 7600
Neighbor list info ...
  update every 1 steps, delay 0 steps, check yes
  max neighbors/atom: 2000, page size: 100000
  master list distance cutoff = 13
  ghost atom cutoff = 13
  binsize = 6.5, bins = 5 52 5
  3 neighbor lists, perpetual/occasional/extra = 3 0 0
  (1) pair coul/long, perpetual
      attributes: half, newton on
      pair build: half/bin/newton
      stencil: half/bin/3d/newton
      bin: standard
  (2) pair eam/alloy, perpetual, skip from (1)
      attributes: half, newton on
      pair build: skip
      stencil: none
      bin: none
  (3) pair table, perpetual, skip from (1)
      attributes: half, newton on
      pair build: skip
      stencil: none
      bin: none
Setting up Verlet run ...
  Unit style    : metal
  Current step  : 204
  Time step     : 0.001
Per MPI rank memory allocation (min/avg/max) = 9.230 | 9.843 | 10.03 Mbytes
Step Dt Time Atoms Temp PotEng KinEng Press Volume 
     204        0.001            0    17760          600   -231546.13    1377.3185    5667.9062    261828.78 
   10000        0.001        9.796    17760    592.47122   -230174.54     1360.036     770.0162    266356.11 
   20000        0.001       19.796    17760    602.12742   -230170.28    1382.2021   -47.118612    266448.61 
   30000        0.001       29.796    17760    594.31131   -230184.45      1364.26     -482.741    266392.62 
   40000        0.001       39.796    17760    598.57393   -230174.89     1374.045    599.67671    266393.79 
   50000        0.001       49.796    17760    601.22167   -230187.15    1380.1229    534.65798    266285.73 
   60000        0.001       59.796    17760    598.67632   -230194.31      1374.28    -333.8872    266395.83 
   70000        0.001       69.796    17760    601.93782   -230180.32    1381.7669   -290.85713    266469.42 
   80000        0.001       79.796    17760     608.4355   -230199.16    1396.6825    171.39953    266354.58 
   90000        0.001       89.796    17760    604.15807   -230199.81    1386.8635   -863.98632    266454.85 
  100000        0.001       99.796    17760    602.14437   -230221.29     1382.241    650.33241    266268.43 
  100204        0.001          100    17760    598.75285   -230205.07    1374.4557    729.80974    266223.16 
Loop time of 826.179 on 52 procs for 100000 steps with 17760 atoms

Performance: 10.458 ns/day, 2.295 hours/ns, 121.039 timesteps/s
99.8% CPU use with 52 MPI tasks x 1 OpenMP threads

MPI task timing breakdown:
Section |  min time  |  avg time  |  max time  |%varavg| %total
---------------------------------------------------------------
Pair    | 524.35     | 539.09     | 556.1      |  29.9 | 65.25
Bond    | 0.011782   | 0.016108   | 0.021116   |   2.1 |  0.00
Kspace  | 146.3      | 163.52     | 178.46     |  54.9 | 19.79
Neigh   | 2.7138     | 2.8558     | 3.0424     |   5.4 |  0.35
Comm    | 15.834     | 16.362     | 16.971     |   6.7 |  1.98
Output  | 0.0513     | 0.051346   | 0.053369   |   0.1 |  0.01
Modify  | 92.499     | 96.121     | 101.15     |  22.5 | 11.63
Other   |            | 8.159      |            |       |  0.99

Nlocal:        341.538 ave         364 max         326 min
Histogram: 4 11 5 8 5 6 6 1 3 3
Nghost:        5548.96 ave        5660 max        5445 min
Histogram: 8 7 5 2 5 1 8 6 4 6
Neighs:       107380.0 ave      116682 max       98655 min
Histogram: 2 2 9 6 11 8 4 4 1 5

Total # of neighbors = 5583767
Ave neighs/atom = 314.40130
Ave special neighs/atom = 0.0000000
Neighbor list builds = 902
Dangerous builds = 0
System init for write_data ...
PPPM initialization ...
  using 12-bit tables for long-range coulomb (../kspace.cpp:328)
  G vector (1/distance) = 0.29872657
  grid = 40 240 40
  stencil order = 5
  estimated absolute RMS force accuracy = 0.00015636141
  estimated relative force accuracy = 1.0858699e-05
  using single precision MKL FFT
  3d grid and FFT values/proc = 18225 7600
Neighbor list info ...
  update every 1 steps, delay 0 steps, check yes
  max neighbors/atom: 2000, page size: 100000
  master list distance cutoff = 13
  ghost atom cutoff = 13
  binsize = 6.5, bins = 5 52 5
  3 neighbor lists, perpetual/occasional/extra = 3 0 0
  (1) pair coul/long, perpetual
      attributes: half, newton on
      pair build: half/bin/newton
      stencil: half/bin/3d/newton
      bin: standard
  (2) pair eam/alloy, perpetual, skip from (1)
      attributes: half, newton on
      pair build: skip
      stencil: none
      bin: none
  (3) pair table, perpetual, skip from (1)
      attributes: half, newton on
      pair build: skip
      stencil: none
      bin: none
Total wall time: 0:13:50
