LAMMPS (29 Oct 2020)
OMP_NUM_THREADS environment is not set. Defaulting to 1 thread. (../comm.cpp:94)
  using 1 OpenMP thread(s) per MPI task
OMP_NUM_THREADS environment is not set. Defaulting to 1 thread. (../comm.cpp:94)
  using 1 OpenMP thread(s) per MPI task
Reading data file ...
  orthogonal box = (-0.45665406 -5.5923395 -0.45736882) to (27.796654 333.67234 27.797369)
  2 by 13 by 2 MPI processor grid
  reading atoms ...
  17760 atoms
  reading velocities ...
  17760 velocities
Finding 1-2 1-3 1-4 neighbors ...
  special bond factors lj:    0.0      0.0      0.0     
  special bond factors coul:  0.0      0.0      0.0     
     0 = max # of 1-2 neighbors
     0 = max # of 1-3 neighbors
     0 = max # of 1-4 neighbors
     1 = max # of special neighbors
  special bonds CPU = 0.004 seconds
  read_data CPU = 0.059 seconds
WARNING: 13 of 1000 force values in table Xe-Xe are inconsistent with -dE/dr.
  Should only be flagged at inflection points (../pair_table.cpp:461)
WARNING: 2 of 1000 force values in table Xe-O are inconsistent with -dE/dr.
  Should only be flagged at inflection points (../pair_table.cpp:461)
WARNING: 2 of 1000 force values in table Xe-Th are inconsistent with -dE/dr.
  Should only be flagged at inflection points (../pair_table.cpp:461)
Setting atom values ...
  11760 settings made for charge
Setting atom values ...
  5880 settings made for charge
Setting atom values ...
  120 settings made for charge
PPPM initialization ...
  using 12-bit tables for long-range coulomb (../kspace.cpp:328)
  G vector (1/distance) = 0.29840522
  grid = 40 240 40
  stencil order = 5
  estimated absolute RMS force accuracy = 0.00015898267
  estimated relative force accuracy = 1.1040735e-05
  using single precision MKL FFT
  3d grid and FFT values/proc = 18225 7600
Neighbor list info ...
  update every 1 steps, delay 0 steps, check yes
  max neighbors/atom: 2000, page size: 100000
  master list distance cutoff = 13
  ghost atom cutoff = 13
  binsize = 6.5, bins = 5 53 5
  3 neighbor lists, perpetual/occasional/extra = 3 0 0
  (1) pair coul/long, perpetual
      attributes: half, newton on
      pair build: half/bin/newton
      stencil: half/bin/3d/newton
      bin: standard
  (2) pair eam/alloy, perpetual, skip from (1)
      attributes: half, newton on
      pair build: skip
      stencil: none
      bin: none
  (3) pair table, perpetual, skip from (1)
      attributes: half, newton on
      pair build: skip
      stencil: none
      bin: none
Setting up Verlet run ...
  Unit style    : metal
  Current step  : 0
  Time step     : 0.001
Per MPI rank memory allocation (min/avg/max) = 9.592 | 9.949 | 10.03 Mbytes
Step Temp E_pair E_mol TotEng Press 
       0         1200   -228811.29            0   -226056.65    924.83621 
   50000    1202.9129   -228783.66            0   -226022.34    1237.3301 
Loop time of 350.486 on 52 procs for 50000 steps with 17760 atoms

Performance: 12.326 ns/day, 1.947 hours/ns, 142.659 timesteps/s
99.8% CPU use with 52 MPI tasks x 1 OpenMP threads

MPI task timing breakdown:
Section |  min time  |  avg time  |  max time  |%varavg| %total
---------------------------------------------------------------
Pair    | 255.07     | 261.24     | 271.21     |  22.8 | 74.54
Bond    | 0.0040487  | 0.0065937  | 0.0088676  |   1.5 |  0.00
Kspace  | 65.965     | 75.648     | 82.72      |  43.2 | 21.58
Neigh   | 3.3863     | 3.5783     | 3.7999     |   4.9 |  1.02
Comm    | 7.1255     | 7.5925     | 8.6031     |  14.3 |  2.17
Output  | 5.7388e-05 | 6.2245e-05 | 0.00026696 |   0.0 |  0.00
Modify  | 0.99664    | 1.7256     | 2.4844     |  40.5 |  0.49
Other   |            | 0.6931     |            |       |  0.20

Nlocal:        341.538 ave         365 max         325 min
Histogram: 2 5 6 12 11 8 2 2 2 2
Nghost:        5442.15 ave        5599 max        5318 min
Histogram: 4 6 2 6 13 12 5 0 0 4
Neighs:       104835.0 ave      114041 max       98596 min
Histogram: 5 4 10 5 12 7 5 2 0 2

Total # of neighbors = 5451396
Ave neighs/atom = 306.94797
Ave special neighs/atom = 0.0000000
Neighbor list builds = 1196
Dangerous builds = 0
11760 atoms in group oxygen
PPPM initialization ...
  using 12-bit tables for long-range coulomb (../kspace.cpp:328)
  G vector (1/distance) = 0.29840522
  grid = 40 240 40
  stencil order = 5
  estimated absolute RMS force accuracy = 0.00015898267
  estimated relative force accuracy = 1.1040735e-05
  using single precision MKL FFT
  3d grid and FFT values/proc = 18225 7600
Neighbor list info ...
  update every 1 steps, delay 0 steps, check yes
  max neighbors/atom: 2000, page size: 100000
  master list distance cutoff = 13
  ghost atom cutoff = 13
  binsize = 6.5, bins = 5 53 5
  3 neighbor lists, perpetual/occasional/extra = 3 0 0
  (1) pair coul/long, perpetual
      attributes: half, newton on
      pair build: half/bin/newton
      stencil: half/bin/3d/newton
      bin: standard
  (2) pair eam/alloy, perpetual, skip from (1)
      attributes: half, newton on
      pair build: skip
      stencil: none
      bin: none
  (3) pair table, perpetual, skip from (1)
      attributes: half, newton on
      pair build: skip
      stencil: none
      bin: none
Setting up Verlet run ...
  Unit style    : metal
  Current step  : 0
  Time step     : 0.001
Per MPI rank memory allocation (min/avg/max) = 9.843 | 10.22 | 10.28 Mbytes
Step f_2 Temp v_Tdiff v_deltaT 
       0            0    1202.9129            0            0 
  100000     1299.682    1203.6932  0.050840332    590.25153 
  200000    2536.2117    1201.8693  0.060789353    705.75874 
  300000     3761.965    1208.9142  0.059266865     688.0828 
  400000    4997.3873     1208.789  0.060862558    706.60865 
  500000    6232.6989    1215.7645  0.060645257    704.08581 
  600000    7469.6102    1200.9016  0.060204236    698.96558 
  700000    8714.1476    1219.9717  0.058795878    682.61468 
  800000    9955.7122    1208.7516  0.059995486    696.54202 
  900000    11200.184    1210.7431  0.060804173    705.93081 
 1000000    12436.527    1200.7497   0.06069267    704.63627 
Loop time of 6989.04 on 52 procs for 1000000 steps with 17760 atoms

Performance: 12.362 ns/day, 1.941 hours/ns, 143.081 timesteps/s
99.9% CPU use with 52 MPI tasks x 1 OpenMP threads

MPI task timing breakdown:
Section |  min time  |  avg time  |  max time  |%varavg| %total
---------------------------------------------------------------
Pair    | 5074.3     | 5214.6     | 5403.8     |  86.8 | 74.61
Bond    | 0.076613   | 0.12954    | 0.19317    |   6.7 |  0.00
Kspace  | 1316.7     | 1498       | 1625.2     | 156.2 | 21.43
Neigh   | 79.707     | 83.891     | 88.373     |  25.9 |  1.20
Comm    | 141.11     | 153.28     | 174.76     |  71.9 |  2.19
Output  | 0.0010505  | 0.0011631  | 0.0041065  |   1.3 |  0.00
Modify  | 5.6388     | 6.1236     | 6.6823     |  11.0 |  0.09
Other   |            | 33.03      |            |       |  0.47

Nlocal:        341.538 ave         363 max         320 min
Histogram: 1 4 5 10 5 7 11 4 3 2
Nghost:        5487.60 ave        5610 max        5346 min
Histogram: 3 0 3 10 13 5 4 4 2 8
Neighs:       104832.0 ave      111896 max       96693 min
Histogram: 2 4 5 6 6 6 5 8 6 4

Total # of neighbors = 5451286
Ave neighs/atom = 306.94178
Ave special neighs/atom = 0.0000000
Neighbor list builds = 27926
Dangerous builds = 0
Total wall time: 2:02:20
