ITEM: TIMESTEP
20000
ITEM: NUMBER OF ATOMS
17760
ITEM: BOX BOUNDS pp pp pp
-3.9259242317411447e-01 2.7732592423173909e+01
-4.8197154203505770e+00 3.3289971542035408e+02
-3.9510012361859509e-01 2.7735100123618817e+01
ITEM: ATOMS id type q x y z
1 2 2.2208 5.33316 0.809856 5.28432
2 1 -1.1104 0.979284 -3.49615 1.06695
3 1 -1.1104 1.00793 1.90328 1.18751
6 1 -1.1104 1.02841 -3.5046 3.92296
7 1 -1.1104 1.11862 2.24398 3.96101
10 1 -1.1104 0.95161 -0.7777 0.660823
12 2 2.2208 5.30611 -2.06068 2.32301
13 2 2.2208 5.3494 3.63276 2.43228
14 1 -1.1104 1.24032 -0.694509 3.59255
16 1 -1.1104 3.89659 -3.25916 0.833072
17 1 -1.1104 3.85541 2.31285 1.23538
18 2 2.2208 2.5629 0.800623 2.59845
19 1 -1.1104 3.9685 -3.44783 3.72006
20 1 -1.1104 3.9181 2.31957 3.92061
21 2 2.2208 2.59125 -2.207 5.04023
22 2 2.2208 2.57036 3.59109 5.3001
23 1 -1.1104 3.78116 -0.422494 1.03518
24 1 -1.1104 3.93106 -0.543248 3.85008
346 2 2.2208 13.632 0.726115 13.5359
630 2 2.2208 10.9788 11.8488 -0.335346
9076 2 2.2208 -0.268591 0.693034 5.24973
8861 2 2.2208 13.6767 14.6893 5.28003
15 1 -1.1104 6.74071 -0.565903 3.99299
199 2 2.2208 -0.21002 0.78853 10.8972
201 2 2.2208 5.38555 -4.86949 10.8242
9075 2 2.2208 -0.318347 3.45314 13.5967
605 2 2.2208 5.25465 11.8548 -0.441748
172 1 -1.1104 3.93879 -0.760046 6.51131
538 2 2.2208 5.34064 0.871827 -0.273253
200 2 2.2208 13.6323 17.5113 2.48405
5 1 -1.1104 6.70801 2.29961 0.980092
4 1 -1.1104 6.70141 -3.4656 0.98847
11 1 -1.1104 6.56324 -0.504364 1.32692
9 1 -1.1104 6.74751 2.21084 3.85367
8 1 -1.1104 6.68154 -3.51624 3.84467
31 2 2.2208 10.9744 0.639656 5.12951
32 1 -1.1104 12.2847 -3.42684 0.946089
33 1 -1.1104 12.4969 2.0974 1.09509
34 1 -1.1104 12.3107 -3.49194 4.04811
35 1 -1.1104 12.4651 2.09201 3.75321
36 1 -1.1104 12.3452 -0.680539 1.02682
37 2 2.2208 11.0026 -2.22342 2.32809
39 1 -1.1104 12.3054 -0.781479 3.80045
40 1 -1.1104 9.44516 -3.46758 1.06795
41 1 -1.1104 9.66272 2.17486 1.07475
42 2 2.2208 8.16378 0.745272 2.42791
43 1 -1.1104 9.64236 -3.59657 3.67187
44 1 -1.1104 9.69214 2.31899 3.91043
45 2 2.2208 8.05572 -2.08026 5.13845
46 2 2.2208 8.28168 3.6489 5.18943
47 1 -1.1104 9.40379 -0.711084 0.938749
48 1 -1.1104 9.51319 -0.647451 3.80189
310 2 2.2208 13.5057 20.238 -0.437178
38 2 2.2208 11.087 3.51533 2.42907
570 2 2.2208 8.01449 3.62594 -0.383335
8385 2 2.2208 10.9345 -4.8673 10.8742
25 2 2.2208 -0.353997 -2.12865 2.37595
28 2 2.2208 2.42456 -4.82157 2.33204
205 1 -1.1104 12.333 -0.724743 6.58658
207 1 -1.1104 9.60214 2.16649 6.65257
204 1 -1.1104 12.4666 2.051 6.6217
8993 2 2.2208 -0.350972 6.27819 10.7946
54 2 2.2208 5.34047 6.54838 5.19991
55 2 2.2208 5.1806 11.9422 5.33526
56 1 -1.1104 1.16388 7.71647 0.992435
58 1 -1.1104 1.00643 7.84586 3.87829
60 1 -1.1104 1.09772 4.80437 1.19796
61 1 -1.1104 1.02122 10.5489 1.04124
66 2 2.2208 5.2316 9.19934 2.47359
67 1 -1.1104 1.08684 5.0614 3.8822
68 1 -1.1104 1.07272 10.5776 3.91437
71 1 -1.1104 3.87222 7.8459 0.992324
72 2 2.2208 2.51367 6.32622 2.39988
73 2 2.2208 2.35251 11.8849 2.43156
74 1 -1.1104 3.76111 7.85317 3.80981
75 2 2.2208 2.41777 9.19638 5.1771
76 1 -1.1104 3.89654 5.02489 1.10967
77 1 -1.1104 3.92154 10.4553 0.938078
79 1 -1.1104 3.92254 5.04294 3.89192
80 1 -1.1104 3.81469 10.6765 3.79632
8473 2 2.2208 10.8934 -4.74001 -0.422525
64 1 -1.1104 6.69809 10.5035 0.974711
63 1 -1.1104 6.55392 5.0394 0.984626
237 1 -1.1104 3.85046 4.96262 6.59149
198 2 2.2208 -0.279752 -2.11347 8.03895
8959 2 2.2208 -0.440941 14.8094 2.45072
540 2 2.2208 2.52558 3.58103 -0.305537
59 1 -1.1104 6.73747 7.8349 3.79079
69 1 -1.1104 6.84219 5.0755 3.73082
70 1 -1.1104 6.67628 10.5071 3.84104
57 1 -1.1104 6.93274 7.75221 0.971653
84 2 2.2208 10.9503 6.34363 5.24127
85 2 2.2208 10.7945 11.9633 5.27046
86 1 -1.1104 12.3547 7.67999 0.917632
87 1 -1.1104 12.3157 7.68166 3.69156
88 1 -1.1104 12.4073 4.97467 1.10466
89 1 -1.1104 12.2946 10.5014 1.07168
91 2 2.2208 10.9652 9.11377 2.43839
92 1 -1.1104 12.3727 4.89705 4.06574
93 1 -1.1104 12.2948 10.4448 3.82574
94 1 -1.1104 9.62523 7.85571 0.95436
95 2 2.2208 8.16192 6.34997 2.35807
96 2 2.2208 7.9676 11.9259 2.53481
97 1 -1.1104 9.48587 7.90695 3.85695
98 2 2.2208 8.14382 9.28209 5.20039
99 1 -1.1104 9.4959 5.14645 1.14643
100 1 -1.1104 9.50837 10.7225 1.09994
102 1 -1.1104 9.78996 5.09521 3.75972
103 1 -1.1104 9.51985 10.5592 3.83514
231 1 -1.1104 9.43898 13.4189 9.57263
8791 2 2.2208 -0.332906 3.31982 8.06887
90 1 -1.1104 12.2622 10.4217 6.59259
422 2 2.2208 5.22612 9.16586 13.7946
106 2 2.2208 5.10953 17.3296 5.29954
107 1 -1.1104 1.06428 13.3569 0.913245
109 1 -1.1104 1.06689 18.8722 1.09031
113 1 -1.1104 0.853816 13.3277 3.67049
114 1 -1.1104 0.851798 18.9015 3.80764
116 1 -1.1104 1.05224 16.0629 1.20448
119 2 2.2208 5.21399 14.6667 2.48505
120 2 2.2208 5.09616 20.1236 2.52309
121 1 -1.1104 0.782524 16.149 3.8432
123 1 -1.1104 3.7292 13.332 1.0891
125 1 -1.1104 3.86564 18.7788 1.13316
127 2 2.2208 2.34323 17.4114 2.51993
128 1 -1.1104 3.6918 13.2174 3.94901
129 1 -1.1104 3.71184 18.7969 4.09141
130 2 2.2208 2.36383 14.666 5.30825
131 2 2.2208 2.48534 20.3713 5.31824
132 1 -1.1104 3.85057 16.0405 1.30215
134 1 -1.1104 3.72496 15.9994 4.00335
139 1 -1.1104 6.49033 18.8154 3.97321
140 1 -1.1104 6.73676 16.0913 1.15846
122 1 -1.1104 6.54156 15.964 3.96821
110 1 -1.1104 6.56744 13.3783 0.976609
124 1 -1.1104 3.74538 13.5448 6.79785
117 1 -1.1104 1.05238 16.2841 6.59448
143 1 -1.1104 12.3275 13.4414 6.71057
9061 2 2.2208 -0.303304 3.55587 2.5355
349 2 2.2208 7.96979 14.6637 -0.398069
154 1 -1.1104 9.39434 13.2731 6.64567
149 1 -1.1104 12.3077 16.0607 6.71756
105 1 -1.1104 12.2973 16.1294 12.3074
115 1 -1.1104 6.46057 13.2719 3.97428
151 3 0 10.6026 21.0652 2.93452
138 1 -1.1104 7.00442 18.9057 1.14605
141 2 2.2208 10.7886 17.4856 5.21156
142 1 -1.1104 12.1476 13.2399 1.21921
144 1 -1.1104 12.2477 18.632 0.86129
146 1 -1.1104 12.1548 13.2071 4.04208
147 1 -1.1104 12.3423 18.7126 3.92706
148 1 -1.1104 12.0958 15.7749 0.962387
150 2 2.2208 10.7273 14.7629 2.47776
152 1 -1.1104 12.1044 16.0512 3.85101
153 1 -1.1104 9.37891 13.6221 1.11998
155 1 -1.1104 9.10368 18.8012 3.96886
156 2 2.2208 8.06242 17.4248 2.59422
157 1 -1.1104 9.26803 13.239 3.86981
158 2 2.2208 8.08181 14.7151 5.25853
159 2 2.2208 7.74968 20.1021 5.29746
160 1 -1.1104 9.46562 16.4877 1.09656
162 1 -1.1104 9.44182 16.0318 3.86554
202 1 -1.1104 9.54309 16.2017 9.40316
9025 2 2.2208 13.5935 20.3713 11.0841
168 1 -1.1104 1.13295 -0.688754 6.5046
165 1 -1.1104 1.09391 2.05078 6.75899
171 1 -1.1104 3.96458 2.14709 6.63624
170 1 -1.1104 4.01909 -3.52149 6.6229
164 1 -1.1104 1.17903 -3.60628 6.72611
173 2 2.2208 5.23891 0.672976 10.8592
174 1 -1.1104 0.991977 -3.66803 12.2097
175 1 -1.1104 1.25766 2.13985 12.2699
178 1 -1.1104 1.0142 -3.49654 9.5388
179 1 -1.1104 1.15189 2.12228 9.43089
182 1 -1.1104 1.16438 -0.71412 12.3638
184 2 2.2208 5.22586 -1.87139 8.08419
185 2 2.2208 5.44758 3.56488 8.01773
186 1 -1.1104 1.11234 -0.695119 9.55025
188 1 -1.1104 3.92042 -3.47335 12.2464
189 1 -1.1104 3.95615 2.21469 12.2176
190 2 2.2208 2.47845 0.633076 8.03588
191 1 -1.1104 3.92066 -3.4501 9.51833
192 1 -1.1104 4.05794 2.00422 9.38331
193 2 2.2208 2.53718 -2.23477 10.8825
194 2 2.2208 2.58005 3.51237 10.6891
195 1 -1.1104 3.87699 -0.612827 12.437
196 1 -1.1104 3.84709 -0.783529 9.44441
83 1 -1.1104 12.4081 13.2517 9.4063
135 2 2.2208 10.8671 14.6197 8.1528
187 1 -1.1104 6.66794 -0.704477 9.50084
176 1 -1.1104 6.66877 -3.46239 12.3527
197 1 -1.1104 9.17586 18.8036 12.3206
49 2 2.2208 7.96885 14.688 10.976
203 1 -1.1104 12.2672 -3.4308 6.71628
145 1 -1.1104 12.179 18.8091 6.67931
104 1 -1.1104 12.33 18.9425 9.60401
208 1 -1.1104 9.40561 -0.661494 6.69187
183 1 -1.1104 6.68601 -0.635452 12.2958
169 1 -1.1104 6.55956 -0.511524 6.72389
166 1 -1.1104 6.80403 -3.22364 6.7455
167 1 -1.1104 6.7699 2.24464 6.6289
180 1 -1.1104 6.7391 -3.47482 9.50604
177 1 -1.1104 6.66691 2.20791 12.3994
206 1 -1.1104 9.5246 -3.37399 6.51638
181 1 -1.1104 6.74055 2.16833 9.62129
210 2 2.2208 10.9568 0.654928 10.8177
211 1 -1.1104 12.1325 -3.30606 12.3487
212 1 -1.1104 12.2798 2.06139 12.2227
213 1 -1.1104 12.3432 -3.47913 9.64232
214 1 -1.1104 12.2955 2.15603 9.39994
215 1 -1.1104 12.154 -0.615418 12.2428
216 2 2.2208 10.8764 -2.08793 8.10619
217 2 2.2208 10.8806 3.61267 8.09129
218 1 -1.1104 12.4131 -0.698993 9.54149
219 1 -1.1104 9.41808 -3.4566 12.0635
220 1 -1.1104 9.55293 2.15246 12.236
221 2 2.2208 8.06587 0.764686 8.00225
222 1 -1.1104 9.42586 -3.47401 9.3715
223 1 -1.1104 9.34548 2.1049 9.43356
224 2 2.2208 8.08229 -2.00605 10.8619
225 2 2.2208 8.14436 3.51986 10.9296
226 1 -1.1104 9.41178 -0.602209 12.3058
227 1 -1.1104 9.64354 -0.631202 9.40196
827 1 -1.1104 9.25987 19.3692 6.91449
236 1 -1.1104 3.8082 7.89439 6.48396
78 1 -1.1104 3.76841 10.7395 6.81727
62 1 -1.1104 1.04876 10.2975 6.64488
232 1 -1.1104 1.01725 7.57438 6.68341
234 1 -1.1104 1.04268 4.72529 6.69208
238 2 2.2208 5.13168 6.36625 10.8429
239 2 2.2208 5.24636 11.9438 10.9225
240 1 -1.1104 0.962883 7.82233 12.2295
242 1 -1.1104 0.92858 7.82703 9.43604
244 1 -1.1104 0.925151 5.06569 12.4319
245 1 -1.1104 0.978227 10.551 12.2066
248 2 2.2208 5.17907 9.21023 8.1967
249 1 -1.1104 1.10766 4.98741 9.47391
250 1 -1.1104 0.9535 10.5431 9.4094
253 1 -1.1104 3.73326 7.7583 12.2225
254 2 2.2208 2.48556 6.47498 8.00071
255 2 2.2208 2.38038 12.0252 8.07505
256 1 -1.1104 3.93201 7.67799 9.38319
257 2 2.2208 2.32448 9.09488 10.8798
258 1 -1.1104 3.87655 5.00549 12.1554
259 1 -1.1104 3.85123 10.4008 12.3033
260 1 -1.1104 3.86741 5.01932 9.36469
261 1 -1.1104 3.78097 10.5564 9.49025
241 1 -1.1104 6.68527 7.83254 12.1988
246 1 -1.1104 6.63034 4.90535 12.3002
252 1 -1.1104 6.61292 10.5981 9.6662
251 1 -1.1104 6.69743 5.08451 9.39718
9151 2 2.2208 13.6727 14.5322 -0.279275
137 1 -1.1104 12.3168 16.0689 9.6511
65 1 -1.1104 6.59912 10.4932 6.73888
233 1 -1.1104 6.61032 7.92464 6.70719
235 1 -1.1104 6.70591 4.98024 6.6143
265 1 -1.1104 9.4527 7.70086 6.56958
263 1 -1.1104 12.4313 7.6769 6.68728
264 1 -1.1104 12.1702 5.00536 6.71665
243 1 -1.1104 6.62499 7.79848 9.38933
101 1 -1.1104 9.51222 10.6922 6.80064
267 1 -1.1104 9.57734 5.06338 6.73305
247 1 -1.1104 6.73518 10.5298 12.4421
262 1 -1.1104 9.4379 10.5414 9.61669
266 1 -1.1104 9.43462 4.91381 9.64298
268 1 -1.1104 9.53917 10.5998 12.3625
269 1 -1.1104 9.46904 4.97489 12.3193
270 2 2.2208 8.08906 9.16519 10.8827
271 1 -1.1104 9.53768 7.73805 9.43771
272 2 2.2208 7.81173 11.7486 8.10524
273 2 2.2208 8.08514 6.44447 8.05999
274 2 2.2208 10.9113 6.33699 10.9899
275 2 2.2208 10.9571 11.9422 10.9219
276 1 -1.1104 12.1449 7.81311 12.2508
277 1 -1.1104 12.2103 7.65917 9.49297
278 1 -1.1104 12.3208 5.08322 12.2823
279 1 -1.1104 12.3378 10.6094 12.3047
280 2 2.2208 11.0193 8.93038 8.10153
281 1 -1.1104 12.2004 4.94739 9.53153
282 1 -1.1104 12.3365 10.5562 9.42434
283 1 -1.1104 9.51454 7.79882 12.2308
8979 2 2.2208 13.6429 9.13651 10.9501
53 1 -1.1104 9.37126 16.1957 12.3604
126 1 -1.1104 3.8169 19.021 6.66952
287 1 -1.1104 6.59592 16.0744 9.50399
286 1 -1.1104 6.576 18.8321 9.54899
288 1 -1.1104 6.56958 13.2692 9.57392
294 1 -1.1104 6.56622 18.8741 12.2248
304 1 -1.1104 6.5773 16.2696 12.4523
300 1 -1.1104 0.969995 19.1195 6.60208
108 1 -1.1104 0.972106 13.3668 6.63903
133 1 -1.1104 3.74513 16.1782 6.90418
284 1 -1.1104 3.8525 18.9882 12.2565
285 1 -1.1104 3.80411 13.3276 12.3154
289 1 -1.1104 1.00924 18.9963 9.59554
290 1 -1.1104 0.880648 16.1388 9.4928
291 2 2.2208 5.13556 20.3471 8.21582
292 1 -1.1104 0.902671 13.319 9.42047
293 2 2.2208 5.15328 14.6354 8.26174
296 1 -1.1104 1.0591 19.0285 12.4209
297 1 -1.1104 1.00746 13.3298 12.131
298 2 2.2208 5.12929 17.537 10.9486
299 1 -1.1104 3.54705 18.8516 9.6591
301 2 2.2208 2.38369 17.5028 8.26998
302 1 -1.1104 3.78808 16.1241 9.66775
303 1 -1.1104 3.7028 13.3145 9.56125
305 1 -1.1104 0.957654 16.1377 12.3493
306 1 -1.1104 3.74568 16.2291 12.309
307 2 2.2208 2.39671 20.3389 11.0207
308 2 2.2208 2.30204 14.7026 10.9137
111 1 -1.1104 6.52681 13.2036 6.80731
118 1 -1.1104 6.58437 16.0476 6.69403
161 1 -1.1104 9.30578 16.2563 6.65661
27 2 2.2208 10.7671 17.4915 10.9866
82 1 -1.1104 12.2649 18.8087 12.4257
136 2 2.2208 10.9966 20.1849 8.26051
81 1 -1.1104 12.1805 13.3229 12.3315
209 1 -1.1104 9.43926 18.8663 9.65532
112 1 -1.1104 6.56054 18.8372 6.73988
30 2 2.2208 10.7676 20.1507 13.6348
163 1 -1.1104 9.27422 13.4111 12.2844
295 1 -1.1104 6.53184 13.3691 12.2304
309 2 2.2208 7.98257 17.5531 8.08899
52 2 2.2208 7.9778 20.2629 10.8405
9108 2 2.2208 -0.312426 0.796918 -0.383589
604 2 2.2208 2.35627 9.172 -0.380938
9067 2 2.2208 13.585 11.8372 2.5265
628 2 2.2208 10.8954 6.34748 -0.359222
423 2 2.2208 2.27628 11.9669 13.6498
8539 2 2.2208 8.01748 -4.7596 13.5824
603 2 2.2208 5.21174 6.50107 -0.285508
451 2 2.2208 5.14291 14.7461 13.6437
573 2 2.2208 2.44625 14.8342 -0.312595
513 2 2.2208 10.8033 14.7309 13.6746
315 2 2.2208 5.28961 0.770271 16.6129
316 1 -1.1104 0.962565 -3.43785 17.7066
317 1 -1.1104 1.04288 2.13314 17.7977
320 1 -1.1104 1.11138 -3.45877 15.0047
321 1 -1.1104 1.07507 2.08809 14.9241
326 1 -1.1104 1.17377 -0.640056 18.0467
328 2 2.2208 5.38277 -2.11113 19.3168
330 1 -1.1104 1.2098 -0.660864 15.2223
333 1 -1.1104 3.96204 -3.43678 17.9162
334 1 -1.1104 3.72548 2.10162 18.0454
335 2 2.2208 2.36381 0.892969 19.2646
336 1 -1.1104 4.07107 -3.42761 15.0387
337 1 -1.1104 4.16831 -3.5477 20.4547
338 1 -1.1104 3.91908 2.1937 15.1545
340 2 2.2208 2.59961 -2.05422 16.5343
342 1 -1.1104 3.94122 -0.638252 18.3834
343 1 -1.1104 3.91046 -0.540498 15.3262
339 1 -1.1104 1.23543 2.34002 20.5442
9136 1 -1.1104 1.00865 -3.47026 20.6394
341 2 2.2208 2.38905 3.55379 16.3776
329 2 2.2208 5.26483 3.47522 19.3529
313 2 2.2208 5.31832 3.56204 13.6956
8542 2 2.2208 10.9217 -4.73691 16.5582
9147 2 2.2208 -0.348175 3.61972 19.2715
545 2 2.2208 2.4944 -4.70323 24.7855
8436 2 2.2208 8.15202 -4.89983 24.8445
9219 2 2.2208 -0.508436 9.23475 13.6786
544 2 2.2208 5.28155 -4.74065 22.1666
648 2 2.2208 7.93313 17.5213 13.7748
318 1 -1.1104 6.69915 -3.61889 17.8982
331 1 -1.1104 6.79443 -0.51901 15.1162
319 1 -1.1104 6.45842 2.22336 17.8221
314 2 2.2208 5.30361 -1.9066 13.6978
322 1 -1.1104 6.7506 -3.06133 15.1221
327 1 -1.1104 6.82889 -0.767545 17.8625
324 1 -1.1104 6.74019 2.19003 15.0597
355 2 2.2208 10.9422 0.792742 16.4687
356 1 -1.1104 12.1945 -3.45886 17.9755
357 1 -1.1104 12.198 2.12403 17.9081
358 1 -1.1104 12.3862 -3.46585 15.0737
360 1 -1.1104 12.3095 2.17924 15.1625
362 1 -1.1104 12.3138 -0.726443 17.8501
363 2 2.2208 11.0425 -1.97943 19.3788
365 1 -1.1104 12.4536 -0.724467 15.0446
367 1 -1.1104 9.55884 -3.23802 17.9059
368 1 -1.1104 9.39057 2.20222 17.831
369 2 2.2208 8.01049 0.76039 19.3482
370 1 -1.1104 9.34497 -3.4458 15.0166
372 1 -1.1104 9.62584 2.21037 15.1474
374 2 2.2208 8.19235 -1.97428 16.5043
376 1 -1.1104 9.5812 -0.463686 17.8876
377 1 -1.1104 9.5897 -0.745848 15.1036
375 2 2.2208 7.99998 3.58334 16.4216
650 2 2.2208 -0.332233 0.750943 16.5246
311 2 2.2208 -0.24853 -2.18245 13.6769
364 2 2.2208 10.8962 3.50048 19.1688
8547 2 2.2208 2.57818 -4.7808 19.4763
323 1 -1.1104 6.84371 -3.40966 20.6655
9179 2 2.2208 13.6056 6.43544 13.7051
485 2 2.2208 2.32167 17.5192 13.6936
387 2 2.2208 10.9398 3.6115 13.6378
425 2 2.2208 10.9041 9.08967 13.6648
539 2 2.2208 2.55249 -1.91612 27.6743
9250 2 2.2208 13.7115 17.5613 19.464
9368 2 2.2208 13.6575 9.05305 22.1851
388 2 2.2208 5.1527 6.30911 16.4373
389 2 2.2208 5.22233 11.8366 16.4537
390 1 -1.1104 1.01543 7.49831 17.8679
392 1 -1.1104 0.969926 7.84883 15.1577
396 1 -1.1104 1.07722 4.83633 17.9593
397 1 -1.1104 0.920409 10.5423 17.9942
400 2 2.2208 5.307 9.07308 19.3551
401 1 -1.1104 0.958816 4.97492 15.1039
403 1 -1.1104 0.842397 10.7507 14.9878
409 1 -1.1104 3.70524 7.94401 18.0014
410 2 2.2208 2.50799 6.46349 19.3089
411 2 2.2208 2.28928 11.8655 19.2619
412 1 -1.1104 3.90299 7.72224 15.1391
414 2 2.2208 2.37929 9.16894 16.5616
415 1 -1.1104 3.84105 4.97272 17.8356
416 1 -1.1104 3.73436 10.6165 17.8553
417 1 -1.1104 3.9113 4.87695 15.025
419 1 -1.1104 3.71929 10.4967 14.976
399 1 -1.1104 6.51915 10.3547 17.8313
407 1 -1.1104 6.59261 10.5827 15.1759
391 1 -1.1104 6.57026 7.60062 17.9277
9107 2 2.2208 -0.332399 -2.09708 25.1946
413 1 -1.1104 3.91634 7.57211 20.7459
404 1 -1.1104 0.902589 10.421 20.9583
381 1 -1.1104 9.36192 16.0868 26.3253
394 1 -1.1104 6.5875 7.78453 14.9989
398 1 -1.1104 6.55194 4.93328 17.9147
405 1 -1.1104 6.74883 4.95608 15.1215
608 2 2.2208 10.7133 14.6623 24.9512
426 2 2.2208 10.9811 6.34891 16.5429
427 2 2.2208 10.9077 12.0056 16.5698
428 1 -1.1104 12.2934 7.67292 17.8743
429 1 -1.1104 12.242 7.75978 15.0315
431 1 -1.1104 12.3226 4.91871 17.9849
432 1 -1.1104 12.1276 10.6424 17.9379
433 2 2.2208 10.8235 9.05329 19.3876
434 1 -1.1104 12.2718 4.9969 15.043
436 1 -1.1104 12.3247 10.6483 15.1289
438 1 -1.1104 9.37136 7.84279 18.0076
439 2 2.2208 7.99905 6.29895 19.2426
440 2 2.2208 8.04081 11.9631 19.3317
441 1 -1.1104 9.50755 7.73068 15.1501
443 2 2.2208 8.05019 9.10902 16.4677
444 1 -1.1104 9.47051 5.00075 17.8561
445 1 -1.1104 9.35367 10.607 18.0024
446 1 -1.1104 9.5329 4.92951 15.2077
448 1 -1.1104 9.47385 10.5828 15.1635
312 2 2.2208 2.44882 0.79583 13.6588
450 2 2.2208 8.00039 6.43547 13.6306
9249 2 2.2208 13.5128 17.5568 24.998
578 1 -1.1104 12.2727 13.2421 26.4238
452 2 2.2208 5.12765 17.451 16.5429
453 1 -1.1104 0.926389 13.3314 17.8183
454 1 -1.1104 1.07436 18.8075 18.0389
457 1 -1.1104 0.970856 13.4456 15.0221
459 1 -1.1104 0.886396 19.0072 15.1253
465 1 -1.1104 0.922913 16.148 18.1456
467 2 2.2208 5.20142 14.7393 19.3353
468 2 2.2208 5.0535 20.3051 19.3175
469 1 -1.1104 1.0874 16.2101 15.2228
473 1 -1.1104 3.64947 13.5566 17.9952
474 1 -1.1104 3.79891 18.9974 17.8305
475 2 2.2208 2.34125 17.4155 19.2575
476 1 -1.1104 3.89656 13.2109 15.0399
478 1 -1.1104 3.67933 18.9929 14.9703
480 2 2.2208 2.39416 14.8163 16.4664
481 2 2.2208 2.46726 20.4227 16.5482
482 1 -1.1104 3.82111 16.1198 17.865
483 1 -1.1104 3.94942 16.2157 15.0797
456 1 -1.1104 6.4633 18.812 17.9392
510 1 -1.1104 9.46203 16.3684 20.7607
574 2 2.2208 5.15478 17.4725 27.8049
466 1 -1.1104 6.50716 15.9783 17.818
471 1 -1.1104 6.63549 15.9565 15.1135
461 1 -1.1104 6.6624 13.2716 14.9755
455 1 -1.1104 6.47902 13.145 17.9317
477 1 -1.1104 3.72053 13.3004 20.7622
649 2 2.2208 5.20067 20.266 13.808
606 1 -1.1104 12.0658 18.8427 26.307
380 1 -1.1104 9.39681 16.108 23.5934
463 1 -1.1104 6.47514 18.8119 15.2228
487 2 2.2208 10.8745 17.495 16.5852
488 1 -1.1104 12.2296 13.246 17.812
489 1 -1.1104 12.2601 18.8081 18.0942
490 1 -1.1104 12.3245 13.6314 15.0603
492 1 -1.1104 12.1327 19.204 15.378
494 1 -1.1104 12.3826 16.0244 17.9496
495 2 2.2208 10.8796 14.7546 19.4642
496 2 2.2208 10.8115 20.3178 19.3853
497 1 -1.1104 12.1304 16.3787 14.9808
499 1 -1.1104 9.32599 13.2501 17.9517
500 1 -1.1104 9.46645 18.6469 17.9974
501 2 2.2208 8.04505 17.5927 19.3932
502 1 -1.1104 9.5375 13.3266 15.1639
504 1 -1.1104 9.36765 19.1821 15.0345
506 2 2.2208 8.06616 14.5874 16.4975
507 2 2.2208 7.91542 20.0933 16.68
508 1 -1.1104 9.36502 16.0466 18.0955
509 1 -1.1104 9.3141 16.3006 15.197
491 1 -1.1104 12.2041 13.4142 20.798
498 1 -1.1104 12.1326 16.2076 20.8533
493 1 -1.1104 12.1736 18.9112 20.7969
344 1 -1.1104 3.91035 1.62238 20.9137
379 2 2.2208 7.87718 20.5023 22.1332
505 1 -1.1104 9.18005 19.1376 20.8085
351 2 2.2208 7.94235 14.762 22.1686
515 2 2.2208 5.38274 0.855814 22.451
516 1 -1.1104 0.722028 -3.53862 23.8734
517 1 -1.1104 1.10461 2.21738 23.7678
520 1 -1.1104 1.14554 -3.41634 26.4946
521 1 -1.1104 1.09317 2.08448 26.4564
525 2 2.2208 5.36737 -2.09061 25.0827
526 2 2.2208 5.36237 3.6688 25.0396
527 1 -1.1104 1.37401 -0.676309 25.8014
529 1 -1.1104 4.08542 -3.49601 23.7181
530 1 -1.1104 3.82231 2.30395 23.5531
531 2 2.2208 2.68027 0.942255 25.0608
532 1 -1.1104 4.01449 -3.40723 26.3991
533 1 -1.1104 4.07535 2.25134 26.4993
534 3 0 1.60295 -0.792321 21.9732
536 1 -1.1104 4.05753 -0.427933 23.6873
537 1 -1.1104 4.05661 -0.557332 26.47
535 2 2.2208 2.41822 3.48682 22.1062
332 1 -1.1104 6.30655 -0.595153 20.8971
522 1 -1.1104 6.82721 -3.54767 26.4297
384 1 -1.1104 9.42248 13.1826 26.4821
641 1 -1.1104 6.62884 19.1349 23.5759
571 1 -1.1104 6.37899 19.0873 26.4069
361 1 -1.1104 12.3186 2.22054 20.5933
635 1 -1.1104 6.71083 13.2452 26.3169
359 1 -1.1104 12.4117 -3.37216 20.7268
366 1 -1.1104 12.4235 -0.560817 20.6699
371 1 -1.1104 9.6641 -3.26083 20.7801
325 1 -1.1104 6.68437 2.13336 20.7967
519 1 -1.1104 6.66105 2.28077 23.5595
378 1 -1.1104 9.53979 -0.592644 20.738
528 1 -1.1104 6.74234 -0.680953 26.517
518 1 -1.1104 6.7863 -3.35826 23.5636
523 1 -1.1104 6.69656 2.18426 26.368
524 1 -1.1104 6.92345 -0.6612 23.6567
373 1 -1.1104 9.6037 2.1508 20.6018
550 2 2.2208 11.0771 0.635689 22.0139
551 1 -1.1104 12.367 -3.37462 23.4515
552 1 -1.1104 12.2437 2.10421 23.4213
553 1 -1.1104 12.297 -3.58686 26.2279
554 1 -1.1104 12.4699 2.13446 26.5112
555 1 -1.1104 12.5361 -0.770843 23.4512
556 2 2.2208 11.0304 -2.03596 24.9616
557 2 2.2208 10.9429 3.51003 25.0225
558 1 -1.1104 12.4486 -0.723392 26.2385
559 1 -1.1104 9.59732 -3.47738 23.6127
560 1 -1.1104 9.5432 2.10324 23.6557
561 2 2.2208 8.20928 0.746772 25.054
562 1 -1.1104 9.6998 -3.28738 26.3899
563 1 -1.1104 9.43019 1.96784 26.6512
564 2 2.2208 8.20848 -2.03263 22.1531
565 2 2.2208 8.2919 3.4206 22.1269
566 1 -1.1104 9.68857 -0.546973 23.5288
567 1 -1.1104 9.65934 -0.68873 26.2562
607 1 -1.1104 12.1623 16.0613 23.5674
9222 2 2.2208 -0.316413 6.28561 16.3411
572 2 2.2208 7.87109 17.6836 24.9394
382 1 -1.1104 9.31486 18.9451 26.5813
393 1 -1.1104 1.10606 7.71269 20.6147
420 1 -1.1104 3.76902 10.3384 20.6432
418 1 -1.1104 3.85722 4.81773 20.7832
402 1 -1.1104 1.1796 5.1022 20.7773
579 2 2.2208 5.1728 6.22714 22.1171
580 2 2.2208 5.12332 12.0114 22.0769
581 1 -1.1104 1.07951 7.76168 23.5026
583 1 -1.1104 0.947017 7.74894 26.3886
585 1 -1.1104 0.920185 4.87172 23.6477
586 1 -1.1104 1.12476 10.5678 23.5793
589 2 2.2208 5.26615 9.10108 24.83
590 1 -1.1104 1.19166 4.84082 26.4348
591 1 -1.1104 0.979742 10.5888 26.4837
594 1 -1.1104 3.81488 7.68256 23.5163
595 2 2.2208 2.45327 6.43363 24.9961
596 2 2.2208 2.4273 11.8705 24.9819
597 1 -1.1104 3.66912 7.87235 26.3103
598 2 2.2208 2.47444 9.03259 22.1262
599 1 -1.1104 3.79981 4.9772 23.5225
600 1 -1.1104 3.94138 10.5386 23.3679
601 1 -1.1104 3.94461 5.07581 26.469
602 1 -1.1104 3.8387 10.589 26.3433
395 1 -1.1104 6.57511 7.58865 20.6564
593 1 -1.1104 6.67755 10.4757 26.2168
588 1 -1.1104 6.66499 10.5293 23.3889
582 1 -1.1104 6.72708 7.66619 23.4916
547 1 -1.1104 12.4022 13.2127 23.6214
430 1 -1.1104 12.2816 7.82474 20.675
447 1 -1.1104 9.27115 4.88626 20.7939
406 1 -1.1104 6.60584 4.7811 20.6319
592 1 -1.1104 6.71557 4.97694 26.4022
437 1 -1.1104 12.2381 10.6039 20.7354
449 1 -1.1104 9.51052 10.6971 20.8196
408 1 -1.1104 6.68767 10.3999 20.6471
442 1 -1.1104 9.55959 7.66889 20.7911
435 1 -1.1104 12.2166 4.99851 20.6457
584 1 -1.1104 6.46105 7.64157 26.2529
587 1 -1.1104 6.66555 4.95201 23.5542
610 1 -1.1104 9.51099 10.3792 26.382
611 1 -1.1104 9.38727 4.85291 26.4464
612 1 -1.1104 9.50914 10.5513 23.6629
613 1 -1.1104 9.5308 4.859 23.5462
614 2 2.2208 8.03036 9.15268 22.1958
615 1 -1.1104 9.339 7.64899 26.1932
616 2 2.2208 8.11947 11.8563 24.9365
617 2 2.2208 8.06672 6.27974 24.9148
618 2 2.2208 10.8968 6.22243 22.1243
619 2 2.2208 10.7682 11.9315 22.1555
620 1 -1.1104 12.4074 7.54491 23.4709
621 1 -1.1104 12.3065 7.88659 26.2893
622 1 -1.1104 12.3175 4.85821 23.5339
623 1 -1.1104 12.2319 10.4427 23.5711
624 2 2.2208 10.8907 9.10559 24.8516
625 1 -1.1104 12.2045 4.98531 26.382
626 1 -1.1104 12.3326 10.5438 26.3919
627 1 -1.1104 9.51397 7.66955 23.5388
9148 2 2.2208 -0.308171 3.58474 25.0309
479 1 -1.1104 3.73257 18.9308 20.8432
462 1 -1.1104 6.53846 13.3028 20.593
458 1 -1.1104 1.00362 13.3238 20.6178
464 1 -1.1104 6.44539 18.9386 20.835
484 1 -1.1104 3.81865 16.0874 20.7401
460 1 -1.1104 0.98395 19.0829 20.789
470 1 -1.1104 0.874626 16.2368 20.8651
647 2 2.2208 5.12904 17.6222 22.2551
350 2 2.2208 2.42612 14.6561 22.2534
352 1 -1.1104 3.63726 18.8367 26.4379
353 2 2.2208 2.27882 20.4634 22.1494
354 1 -1.1104 3.76648 16.104 23.7083
421 1 -1.1104 0.839686 16.1612 23.6412
512 1 -1.1104 3.91683 13.3682 26.5803
514 1 -1.1104 3.9233 15.9972 26.5852
541 2 2.2208 2.22583 17.5418 24.9611
634 1 -1.1104 3.84577 18.9245 23.6887
636 1 -1.1104 3.73739 13.3718 23.689
638 1 -1.1104 0.838721 19.102 26.5107
639 1 -1.1104 1.04358 16.237 26.394
640 1 -1.1104 0.963479 13.4252 26.1123
642 2 2.2208 4.95971 20.3663 24.9898
643 2 2.2208 5.40928 14.5884 24.954
645 1 -1.1104 0.915486 19.0666 23.7617
646 1 -1.1104 0.861304 13.4261 23.4213
472 1 -1.1104 6.59074 16.1153 20.5984
486 1 -1.1104 6.47268 16.1623 23.4329
644 1 -1.1104 6.61804 13.3171 23.4946
637 1 -1.1104 6.56394 16.1546 26.2559
503 1 -1.1104 9.36706 13.449 20.7779
609 2 2.2208 10.7078 20.3467 24.8873
632 1 -1.1104 9.45634 13.3559 23.5398
549 1 -1.1104 12.0373 18.8682 23.6716
631 1 -1.1104 12.2904 16.0467 26.4079
546 2 2.2208 10.7619 17.6252 22.1762
633 1 -1.1104 9.38981 18.9175 23.5811
9291 2 2.2208 -0.376836 17.6541 16.5455
9317 2 2.2208 13.6263 14.6597 22.2017
9396 2 2.2208 -0.305848 6.27009 22.166
542 2 2.2208 7.78789 20.4344 27.7902
424 2 2.2208 8.03849 11.8783 13.7385
568 2 2.2208 11.0291 0.70759 27.6884
9293 2 2.2208 -0.352816 20.3811 13.569
9295 2 2.2208 -0.320151 6.38386 27.7513
511 2 2.2208 10.9004 17.3475 27.6204
348 2 2.2208 2.16241 20.3792 27.7405
386 2 2.2208 10.8138 -2.13745 13.6784
385 2 2.2208 8.09433 0.848143 13.7018
629 2 2.2208 8.0721 9.16417 27.6266
569 2 2.2208 8.08571 -2.11606 27.5837
26 2 2.2208 2.41299 6.28501 13.7559
651 2 2.2208 5.36999 23.0899 5.27528
652 2 2.2208 5.02985 28.7138 5.27489
653 1 -1.1104 0.703082 24.4837 1.10294
654 1 -1.1104 0.856036 24.5142 3.88191
655 1 -1.1104 0.896374 21.5868 1.07412
656 1 -1.1104 0.918627 27.3323 1.14168
657 2 2.2208 5.08614 25.9076 2.55695
658 1 -1.1104 1.17239 21.6378 3.77437
659 1 -1.1104 1.00648 27.4055 3.88551
660 1 -1.1104 3.46609 24.638 1.13333
661 2 2.2208 2.22639 23.1899 2.50555
662 2 2.2208 2.28433 28.7892 2.51232
663 1 -1.1104 3.62239 24.3889 4.00818
664 2 2.2208 2.17121 25.9764 5.29051
665 1 -1.1104 3.60003 21.8573 1.192
666 1 -1.1104 3.66563 27.4534 1.15679
667 1 -1.1104 3.84879 21.5865 3.9211
668 1 -1.1104 3.70716 27.2042 3.93642
672 1 -1.1104 6.36647 24.6303 1.13956
674 1 -1.1104 6.29303 21.7011 1.13219
673 1 -1.1104 6.30461 24.6087 3.87513
675 1 -1.1104 6.48528 27.3191 0.965959
677 1 -1.1104 6.44337 27.3699 3.92965
795 1 -1.1104 6.5012 27.3063 6.69436
793 1 -1.1104 0.858861 27.3158 6.66934
1514 1 -1.1104 6.53894 46.9974 9.48509
1526 1 -1.1104 3.51251 47.0273 9.56236
1335 1 -1.1104 3.61481 47.1087 3.73845
676 1 -1.1104 6.83814 21.8571 3.8886
678 3 0 10.0351 22.7769 5.78677
679 2 2.2208 10.7303 28.7896 5.19391
680 1 -1.1104 12.1104 24.547 0.930892
681 1 -1.1104 12.1518 24.4276 3.56789
682 1 -1.1104 12.4985 21.9777 0.779441
683 1 -1.1104 12.0711 27.3578 1.1471
684 2 2.2208 10.6191 25.9157 2.44294
685 1 -1.1104 12.1026 27.2733 3.75265
686 1 -1.1104 9.22287 24.5941 1.00166
687 2 2.2208 7.89395 23.3238 2.41667
688 2 2.2208 7.887 28.6821 2.49361
689 1 -1.1104 9.01325 24.6937 3.69184
690 2 2.2208 7.79592 26.0471 5.14424
691 1 -1.1104 8.90556 21.9186 0.947282
692 1 -1.1104 9.10982 27.355 1.02667
693 1 -1.1104 9.20814 27.3432 3.84242
823 1 -1.1104 12.3331 24.5252 6.64506
794 1 -1.1104 6.93601 21.8446 6.76317
791 1 -1.1104 6.96049 24.5379 6.64629
977 2 2.2208 7.93429 34.4015 13.5619
699 2 2.2208 5.1517 34.4046 5.215
700 1 -1.1104 0.897915 30.2087 0.961415
701 1 -1.1104 0.823664 35.8548 1.06107
703 1 -1.1104 0.835975 30.2745 3.84577
704 1 -1.1104 0.736275 35.8098 3.75815
706 1 -1.1104 1.09273 32.9468 0.996691
707 2 2.2208 5.10634 31.4928 2.55015
708 2 2.2208 5.12201 37.159 2.51356
709 1 -1.1104 0.823644 33.1004 3.74925
711 1 -1.1104 3.61865 30.1725 1.02624
712 1 -1.1104 3.76507 35.859 1.12562
713 2 2.2208 2.21925 34.4726 2.39758
714 1 -1.1104 3.64921 30.0945 3.85338
715 1 -1.1104 3.49272 35.6242 3.91702
716 2 2.2208 2.22153 31.7777 5.1958
717 2 2.2208 2.1788 37.2028 5.17828
718 1 -1.1104 3.85528 33.0721 1.08594
719 1 -1.1104 3.75836 32.88 3.78915
722 1 -1.1104 6.52532 30.1663 3.79529
702 1 -1.1104 6.51837 35.8432 0.898801
721 1 -1.1104 6.48116 30.0722 1.03687
710 1 -1.1104 6.60519 32.9472 3.85951
847 1 -1.1104 0.781422 35.8405 6.50519
723 1 -1.1104 6.51313 33.0307 0.905319
705 1 -1.1104 6.32373 35.7914 3.72139
849 1 -1.1104 6.60433 35.7377 6.57994
1511 1 -1.1104 6.38302 47.0473 12.242
1523 1 -1.1104 3.70382 47.2068 12.3275
1512 1 -1.1104 0.686708 46.9813 9.36455
724 2 2.2208 10.7008 34.3453 5.25574
725 1 -1.1104 12.2618 30.0413 1.0289
726 1 -1.1104 12.2571 35.778 1.10938
727 1 -1.1104 12.2502 30.2403 3.77792
728 1 -1.1104 12.0748 35.6402 3.87317
729 1 -1.1104 12.2219 32.9568 1.0158
730 2 2.2208 10.736 31.5718 2.42942
731 2 2.2208 10.7074 37.1129 2.34467
732 1 -1.1104 12.1225 32.9443 3.85956
733 1 -1.1104 9.26497 30.1601 1.09139
734 1 -1.1104 9.39255 35.6123 1.09256
735 2 2.2208 7.90298 34.3085 2.44206
736 1 -1.1104 9.40064 30.0557 3.8254
737 1 -1.1104 9.20596 35.8081 3.84582
738 2 2.2208 7.90232 31.5245 5.30051
739 2 2.2208 7.86776 37.1626 5.19417
740 1 -1.1104 9.4547 32.7856 0.944475
741 1 -1.1104 9.31924 32.9115 3.77845
881 1 -1.1104 12.183 35.702 6.59855
885 1 -1.1104 9.1987 32.912 6.63248
880 1 -1.1104 11.9426 30.1442 6.60358
960 2 2.2208 13.5122 31.513 5.25816
742 2 2.2208 13.5395 34.3934 2.46437
1356 1 -1.1104 12.1608 46.999 3.86437
968 2 2.2208 13.5775 45.656 8.1689
1311 1 -1.1104 0.943532 47.1069 1.01148
765 1 -1.1104 3.69556 38.5662 3.86248
754 1 -1.1104 0.671466 38.5835 4.01975
749 1 -1.1104 0.866718 38.6524 1.15833
763 1 -1.1104 3.68447 38.654 1.03999
743 2 2.2208 5.04328 40.0328 5.11379
744 2 2.2208 5.12349 45.6554 5.16682
745 1 -1.1104 0.900043 41.4393 1.03073
747 1 -1.1104 0.81805 41.2592 3.9012
750 1 -1.1104 0.850136 44.1902 0.908162
753 2 2.2208 5.03606 42.7913 2.37606
755 1 -1.1104 0.975053 44.1217 3.66436
758 1 -1.1104 3.69054 41.3305 1.27211
759 2 2.2208 2.25347 39.9937 2.5143
760 2 2.2208 2.31387 45.5914 2.35803
761 1 -1.1104 3.54703 41.4892 3.83599