ITEM: TIMESTEP
100000
ITEM: NUMBER OF ATOMS
17760
ITEM: BOX BOUNDS pp pp pp
-3.9510798758622118e-01 2.7735107987586794e+01
-4.7896095531457181e+00 3.3286960955315436e+02
-3.9813885813998756e-01 2.7738138858140225e+01
ITEM: ATOMS id type q x y z
1 2 2.2208 5.20824 0.84307 5.28366
2 1 -1.1104 1.11514 -3.35622 1.16272
3 1 -1.1104 0.910304 2.29741 1.20773
6 1 -1.1104 1.22115 -3.39907 3.85813
7 1 -1.1104 0.922076 1.90652 3.82129
10 1 -1.1104 1.08125 -0.542298 0.96333
12 2 2.2208 5.38353 -2.02486 2.61275
13 2 2.2208 5.1742 3.5626 2.50545
14 1 -1.1104 0.944443 -0.704226 4.03728
16 1 -1.1104 3.89397 -3.36845 1.10268
17 1 -1.1104 3.73576 1.94506 1.09757
18 2 2.2208 2.38211 0.720986 2.54643
19 1 -1.1104 4.00998 -3.35371 3.98365
20 1 -1.1104 3.8877 2.17937 3.95821
21 2 2.2208 2.40418 -1.85976 5.44111
22 2 2.2208 2.32124 3.55386 5.2944
23 1 -1.1104 3.88486 -0.634347 1.23903
24 1 -1.1104 3.68613 -0.658884 4.04798
9295 2 2.2208 -0.305676 6.51405 -0.351085
149 1 -1.1104 12.2041 16.0981 6.83105
9 1 -1.1104 6.49165 2.32998 3.92506
540 2 2.2208 2.42541 3.60182 -0.202839
539 2 2.2208 2.50031 -2.05287 -0.250269
11 1 -1.1104 6.91723 -0.60152 1.07249
8 1 -1.1104 6.64034 -3.42483 4.05793
163 1 -1.1104 9.09031 13.2965 12.4907
25 2 2.2208 -0.306077 -2.11245 2.56119
4 1 -1.1104 6.86554 -3.50962 1.20933
5 1 -1.1104 6.63314 2.13316 1.19657
209 1 -1.1104 9.44921 18.9232 9.55798
15 1 -1.1104 6.55906 -0.577683 3.86209
31 2 2.2208 10.8169 0.7315 5.25274
32 1 -1.1104 12.3992 -3.41739 1.21064
33 1 -1.1104 12.3434 2.26119 1.12808
34 1 -1.1104 12.3412 -3.44641 4.03323
35 1 -1.1104 12.1666 2.07865 3.78702
36 1 -1.1104 12.3426 -0.652726 1.08881
37 2 2.2208 10.8327 -2.12559 2.50485
39 1 -1.1104 12.2729 -0.614846 3.72838
40 1 -1.1104 9.64236 -3.55773 1.07179
41 1 -1.1104 9.40581 2.21171 1.21383
42 2 2.2208 8.09642 0.800443 2.48767
43 1 -1.1104 9.45249 -3.59349 3.86798
44 1 -1.1104 9.33007 2.17549 3.93709
45 2 2.2208 8.00974 -2.07902 5.25715
47 1 -1.1104 9.51667 -0.637694 1.13305
48 1 -1.1104 9.29632 -0.755662 3.81106
38 2 2.2208 10.9406 3.6497 2.45054
46 2 2.2208 8.02049 3.57754 5.15374
8382 2 2.2208 10.8244 -4.93649 5.42958
205 1 -1.1104 12.3283 -0.742512 6.53975
203 1 -1.1104 12.3202 -3.33619 6.75642
206 1 -1.1104 9.59703 -3.3399 6.71662
569 2 2.2208 8.24882 -2.05922 -0.236057
28 2 2.2208 2.61557 -4.93909 2.58298
286 1 -1.1104 6.48547 18.9678 9.49235
649 2 2.2208 5.22519 20.421 13.8165
199 2 2.2208 -0.428783 0.810304 10.9937
54 2 2.2208 5.3507 6.46681 5.25968
55 2 2.2208 5.10069 12.0052 5.36571
56 1 -1.1104 1.03906 7.91162 1.23764
58 1 -1.1104 0.976403 7.86111 3.88385
60 1 -1.1104 1.03927 5.11757 1.21322
61 1 -1.1104 0.850657 10.541 0.971502
66 2 2.2208 5.37809 9.19108 2.47238
67 1 -1.1104 0.896945 4.82335 4.03354
68 1 -1.1104 1.01084 10.7812 3.89349
71 1 -1.1104 3.8067 8.00159 1.16421
72 2 2.2208 2.51075 6.51618 2.60497
73 2 2.2208 2.48923 12.1206 2.61789
74 1 -1.1104 3.9703 7.83702 3.94455
75 2 2.2208 2.4341 9.15029 5.37411
76 1 -1.1104 3.8305 5.02806 1.22003
77 1 -1.1104 3.77428 10.7777 1.28037
79 1 -1.1104 3.71934 4.94068 3.81012
80 1 -1.1104 3.79489 10.5475 4.04945
69 1 -1.1104 6.64757 5.03032 3.81951
63 1 -1.1104 6.51427 5.05603 1.07444
70 1 -1.1104 6.53767 10.7552 4.01597
8763 2 2.2208 13.7374 3.54014 5.29449
288 1 -1.1104 6.76182 13.3079 9.54839
628 2 2.2208 10.7162 6.33865 -0.360147
52 2 2.2208 7.9251 20.2983 10.9989
630 2 2.2208 10.8372 11.9255 -0.302674
57 1 -1.1104 6.66746 7.79488 1.00947
59 1 -1.1104 6.64763 7.86928 3.87626
9063 2 2.2208 13.6967 17.4147 8.32152
629 2 2.2208 8.06305 9.20186 -0.337738
64 1 -1.1104 6.62637 10.5977 1.11924
84 2 2.2208 10.926 6.35939 5.24176
85 2 2.2208 10.9215 12.1033 5.3443
86 1 -1.1104 12.1643 7.77464 1.08779
87 1 -1.1104 12.3279 7.63993 3.99879
88 1 -1.1104 12.354 5.02596 1.16814
89 1 -1.1104 12.2211 10.5153 0.970194
91 2 2.2208 10.9199 9.18811 2.42943
92 1 -1.1104 12.1996 4.95013 3.88543
93 1 -1.1104 12.4052 10.5362 3.75079
94 1 -1.1104 9.43504 7.94382 1.12342
95 2 2.2208 8.10365 6.39115 2.44766
96 2 2.2208 7.90103 12.0912 2.45021
97 1 -1.1104 9.53215 7.78018 4.04443
98 2 2.2208 8.02681 9.19733 5.32683
99 1 -1.1104 9.47151 5.0131 1.02235
100 1 -1.1104 9.43545 10.7493 1.15484
102 1 -1.1104 9.40802 4.99626 3.74427
103 1 -1.1104 9.50025 10.5286 3.84941
574 2 2.2208 5.32128 17.5862 -0.381895
8975 2 2.2208 13.6381 11.9073 8.13611
573 2 2.2208 2.21556 14.9202 -0.315752
348 2 2.2208 2.4336 20.5045 -0.344887
106 2 2.2208 5.20352 17.6353 5.32734
107 1 -1.1104 0.957256 13.3768 1.08998
109 1 -1.1104 1.15057 19.0083 1.12777
113 1 -1.1104 0.910501 13.4123 3.93252
114 1 -1.1104 0.901338 18.8454 3.89385
116 1 -1.1104 0.820276 16.1558 0.995058
119 2 2.2208 5.2615 14.8365 2.48779
120 2 2.2208 5.27438 20.4459 2.56096
121 1 -1.1104 1.07268 16.211 3.87803
123 1 -1.1104 3.64465 13.5212 1.23767
125 1 -1.1104 4.04006 19.053 1.17369
127 2 2.2208 2.35273 17.5632 2.52229
128 1 -1.1104 3.82513 13.3978 4.04865
129 1 -1.1104 3.74207 19.0469 4.03182
130 2 2.2208 2.36742 14.7664 5.34979
131 2 2.2208 2.38069 20.4201 5.45671
132 1 -1.1104 3.71927 16.2306 1.07023
134 1 -1.1104 3.80294 16.2403 3.78701
115 1 -1.1104 6.70381 13.42 4.09734
122 1 -1.1104 6.67395 16.193 3.77875
140 1 -1.1104 6.695 16.2461 1.09838
8979 2 2.2208 13.712 9.03535 11.004
8791 2 2.2208 -0.407768 3.69491 8.16406
139 1 -1.1104 6.5088 18.9993 4.04373
151 3 0 11.199 20.3623 3.2752
110 1 -1.1104 6.46156 13.4389 1.04473
138 1 -1.1104 7.16785 19.1493 1.33245
141 2 2.2208 10.7441 17.3632 5.53426
142 1 -1.1104 12.1314 13.3501 1.07201
144 1 -1.1104 12.4437 18.8892 0.984588
146 1 -1.1104 12.2633 13.5193 3.97787
147 1 -1.1104 12.4018 18.7565 6.33548
148 1 -1.1104 12.1718 16.1022 1.10961
150 2 2.2208 10.7983 14.8179 2.60109
152 1 -1.1104 11.9652 16.649 3.77756
153 1 -1.1104 9.19146 13.6024 1.17275
155 1 -1.1104 9.27967 18.8256 4.16912
156 2 2.2208 8.03276 17.5042 2.74611
157 1 -1.1104 9.43459 13.4046 3.83886
158 2 2.2208 7.93594 14.7148 5.41701
159 2 2.2208 8.02683 20.154 5.45754
160 1 -1.1104 9.48442 16.5774 1.04091
162 1 -1.1104 9.35252 16.0364 4.03441
104 1 -1.1104 12.2086 18.7318 9.4503
8992 2 2.2208 -0.34887 9.14771 8.03843
8792 2 2.2208 13.6927 9.18149 5.17239
228 2 2.2208 13.699 0.746407 8.00756
171 1 -1.1104 3.83554 2.28641 6.71908
168 1 -1.1104 1.03772 -0.554473 6.88389
170 1 -1.1104 3.94956 -3.43391 6.83816
172 1 -1.1104 3.85301 -0.607868 6.99902
164 1 -1.1104 1.10876 -3.31395 6.75179
165 1 -1.1104 1.08945 2.25076 6.72038
173 2 2.2208 5.22021 0.792513 11.0163
174 1 -1.1104 0.852907 -3.45099 12.4561
175 1 -1.1104 1.13266 2.25049 12.4087
178 1 -1.1104 1.13633 -3.35065 9.62585
179 1 -1.1104 1.03201 2.33475 9.64312
182 1 -1.1104 0.887343 -0.637403 12.3111
184 2 2.2208 5.33466 -2.08513 8.20809
185 2 2.2208 5.07722 3.56869 8.03933
186 1 -1.1104 1.02543 -0.520083 9.55278
188 1 -1.1104 3.87569 -3.38171 12.2892
189 1 -1.1104 3.85059 2.05252 12.4064
190 2 2.2208 2.50306 0.878368 8.20857
191 1 -1.1104 3.93506 -3.40337 9.64014
192 1 -1.1104 3.89036 2.22309 9.5573
193 2 2.2208 2.3887 -2.08544 11.0453
195 1 -1.1104 3.68521 -0.553425 12.4374
196 1 -1.1104 3.94999 -0.541744 9.71407
194 2 2.2208 2.52384 3.51245 11.1211
187 1 -1.1104 6.89223 -0.689128 9.51659
181 1 -1.1104 6.55869 2.09587 9.52815
166 1 -1.1104 6.74795 -3.39363 6.79629
169 1 -1.1104 6.4249 -0.603891 6.61167
176 1 -1.1104 6.77105 -3.58028 12.3402
9064 2 2.2208 -0.308753 6.41895 5.31878
82 1 -1.1104 12.1128 18.8626 12.2172
180 1 -1.1104 6.66615 -3.50983 9.6169
167 1 -1.1104 6.65641 2.15863 6.71109
183 1 -1.1104 6.72476 -0.734724 12.3345
207 1 -1.1104 9.36677 2.14013 6.65044
208 1 -1.1104 9.26835 -0.666483 6.73825
177 1 -1.1104 6.69275 2.11173 12.4258
204 1 -1.1104 12.2179 2.00719 6.54281
210 2 2.2208 11.0035 0.751584 10.9332
211 1 -1.1104 12.5516 -3.60856 12.2586
212 1 -1.1104 12.1745 1.99373 12.3464
213 1 -1.1104 12.3111 -3.53 9.55907
214 1 -1.1104 12.2588 2.19089 9.34823
215 1 -1.1104 12.2397 -0.769709 12.2261
216 2 2.2208 10.8419 -2.02361 8.15766
218 1 -1.1104 12.2448 -0.759883 9.34977
219 1 -1.1104 9.5703 -3.59522 12.3069
220 1 -1.1104 9.43904 1.90892 12.1496
221 2 2.2208 8.05389 0.792547 8.03008
222 1 -1.1104 9.40417 -3.36729 9.48405
223 1 -1.1104 9.45665 2.33682 9.38541
224 2 2.2208 8.22352 -1.93983 10.898
225 2 2.2208 8.01129 3.45676 10.8283
226 1 -1.1104 9.56426 -0.768954 12.3122
227 1 -1.1104 9.54492 -0.609993 9.54552
217 2 2.2208 10.7976 3.57742 8.0316
62 1 -1.1104 1.13744 10.6504 6.68661
234 1 -1.1104 1.04742 4.96102 6.71001
237 1 -1.1104 3.8334 5.12076 6.55332
78 1 -1.1104 3.77883 10.557 6.78565
236 1 -1.1104 3.90312 7.82371 6.8189
232 1 -1.1104 1.07412 7.67871 6.74187
238 2 2.2208 5.26002 6.31732 10.9636
239 2 2.2208 5.14343 12.0299 10.9576
240 1 -1.1104 1.14787 7.85444 12.1972
242 1 -1.1104 1.07552 7.87674 9.54196
244 1 -1.1104 0.977071 4.94539 12.2909
245 1 -1.1104 0.945407 10.6086 12.3955
248 2 2.2208 5.25141 9.05894 8.28115
249 1 -1.1104 0.828692 4.95172 9.51126
250 1 -1.1104 0.9508 10.626 9.50888
253 1 -1.1104 3.91898 7.65083 12.4797
254 2 2.2208 2.47219 6.31991 8.01704
255 2 2.2208 2.37887 12.0165 8.0671
256 1 -1.1104 3.75769 7.64811 9.56077
257 2 2.2208 2.50109 9.22354 10.8395
258 1 -1.1104 3.88758 4.90388 12.3492
259 1 -1.1104 3.72778 10.5067 12.3686
260 1 -1.1104 3.73672 4.88491 9.53656
261 1 -1.1104 3.92694 10.7056 9.59588
252 1 -1.1104 6.59639 10.456 9.80436
235 1 -1.1104 6.67861 4.97227 6.72587
241 1 -1.1104 6.70869 7.69012 12.257
247 1 -1.1104 6.53721 10.6896 12.4259
246 1 -1.1104 6.72081 4.82357 12.2572
251 1 -1.1104 6.57098 4.91817 9.57731
243 1 -1.1104 6.63915 7.78035 9.52786
264 1 -1.1104 12.1947 4.92727 6.71187
65 1 -1.1104 6.60581 10.6031 6.80726
265 1 -1.1104 9.47634 7.82486 6.86427
233 1 -1.1104 6.76592 7.74662 6.74748
101 1 -1.1104 9.58863 10.6671 6.81846
267 1 -1.1104 9.44689 4.97117 6.57847
90 1 -1.1104 12.3853 10.5909 6.57901
263 1 -1.1104 12.1255 7.75507 6.76626
262 1 -1.1104 9.43798 10.5485 9.49921
266 1 -1.1104 9.31414 5.07324 9.43557
268 1 -1.1104 9.3263 10.4661 12.3638
269 1 -1.1104 9.47339 4.90829 12.3409
270 2 2.2208 8.09762 9.11823 10.9139
271 1 -1.1104 9.60087 7.83408 9.73953
272 2 2.2208 8.01942 11.9093 8.1783
273 2 2.2208 8.09617 6.33881 8.15681
274 2 2.2208 10.8705 6.33434 11.0165
275 2 2.2208 10.7529 11.899 11.0853
276 1 -1.1104 12.2424 7.68844 12.3409
277 1 -1.1104 12.4647 7.71329 9.61353
278 1 -1.1104 12.2641 4.85714 12.4366
279 1 -1.1104 12.2308 10.4314 12.4689
280 2 2.2208 10.9106 9.18129 8.0821
281 1 -1.1104 12.1171 4.79925 9.59346
282 1 -1.1104 12.3273 10.3637 9.52335
283 1 -1.1104 9.51454 7.75308 12.3461
9062 2 2.2208 13.6415 14.6634 11.1083
294 1 -1.1104 6.54606 18.936 12.3257
108 1 -1.1104 0.93568 13.4042 6.78026
111 1 -1.1104 6.43312 13.3407 6.87239
287 1 -1.1104 6.50242 16.1154 9.62594
300 1 -1.1104 0.942761 19.0672 6.80263
133 1 -1.1104 3.73351 16.2119 6.68547
126 1 -1.1104 3.82534 19.0066 6.83371
124 1 -1.1104 3.81039 13.3635 6.7435
308 2 2.2208 2.28706 14.6586 10.8627
117 1 -1.1104 1.05019 16.2198 6.77606
307 2 2.2208 2.43927 20.4605 10.9405
306 1 -1.1104 3.69175 16.2708 12.3689
305 1 -1.1104 0.968279 16.163 12.3713
284 1 -1.1104 3.53052 19.0653 12.3986
285 1 -1.1104 3.84661 13.3858 12.3374
289 1 -1.1104 0.886756 19.0379 9.61065
290 1 -1.1104 0.972939 16.2043 9.5395
291 2 2.2208 5.20106 20.4191 8.23093
292 1 -1.1104 0.921365 13.3181 9.49183
293 2 2.2208 5.10625 14.7271 8.10915
296 1 -1.1104 0.78301 18.8781 12.3824
297 1 -1.1104 0.933789 13.3996 12.4637
298 2 2.2208 5.05302 17.4126 10.902
299 1 -1.1104 3.77962 18.9245 9.57088
301 2 2.2208 2.3396 17.7029 8.16301
302 1 -1.1104 3.71874 16.1465 9.47728
303 1 -1.1104 3.7842 13.4365 9.5149
295 1 -1.1104 6.54117 13.2807 12.48
118 1 -1.1104 6.56203 16.2063 6.70918
304 1 -1.1104 6.45799 16.0619 12.3978
112 1 -1.1104 6.60551 18.8828 6.84788
154 1 -1.1104 9.43176 13.3019 6.65003
143 1 -1.1104 12.2881 13.4412 6.77944
161 1 -1.1104 9.35148 16.0618 7.02347
145 1 -1.1104 9.66218 18.843 6.85419
137 1 -1.1104 12.2036 15.8891 9.57262
9061 2 2.2208 -0.429845 3.57644 2.56497
105 1 -1.1104 12.278 15.9184 12.4509
83 1 -1.1104 12.2025 13.1909 9.57778
202 1 -1.1104 9.49025 16.0543 9.69369
136 2 2.2208 10.7571 20.4453 8.06542
135 2 2.2208 10.7714 14.6795 8.27541
309 2 2.2208 7.9136 17.4953 8.33979
231 1 -1.1104 9.42553 13.4175 9.52029
81 1 -1.1104 12.0922 13.2248 12.3704
197 1 -1.1104 9.26226 18.8781 12.3604
49 2 2.2208 7.87104 14.6362 11.0342
27 2 2.2208 10.8288 17.2942 10.9138
53 1 -1.1104 9.2528 16.0345 12.4478
26 2 2.2208 2.28017 6.38967 13.6896
485 2 2.2208 2.3022 17.4923 13.812
538 2 2.2208 5.37086 0.786821 -0.110705
568 2 2.2208 10.8994 0.840852 -0.208429
604 2 2.2208 2.37532 9.25761 -0.29296
603 2 2.2208 5.15553 6.44525 -0.2399
315 2 2.2208 5.27154 0.836223 16.5448
316 1 -1.1104 0.889734 -3.42854 17.7194
317 1 -1.1104 1.12215 2.19175 17.6922
320 1 -1.1104 0.923741 -3.42329 15.0843
321 1 -1.1104 0.996108 2.23379 15.0148
326 1 -1.1104 0.883667 -0.681437 18.3677
328 2 2.2208 5.33955 -2.14697 19.3533
330 1 -1.1104 1.06396 -0.600811 15.2192
333 1 -1.1104 4.01329 -3.5143 17.9383
334 1 -1.1104 3.97043 2.05433 17.9186
335 2 2.2208 2.44505 0.870404 19.1953
336 1 -1.1104 3.79391 -3.37801 15.1005
338 1 -1.1104 3.81525 2.31695 15.1474
340 2 2.2208 2.35307 -2.12915 16.5672
342 1 -1.1104 3.64967 -0.755552 18.1035
343 1 -1.1104 3.8126 -0.443817 15.2618
329 2 2.2208 5.2386 3.40841 19.3862
341 2 2.2208 2.43893 3.68991 16.3925
337 1 -1.1104 3.98088 -3.40447 20.638
9136 1 -1.1104 0.855731 -3.78129 20.5002
339 1 -1.1104 1.49173 2.45752 20.5189
312 2 2.2208 2.38289 0.884639 13.7564
324 1 -1.1104 6.63995 2.21119 15.2942
319 1 -1.1104 6.81428 2.05564 18.0407
513 2 2.2208 10.5827 14.7039 13.8989
9107 2 2.2208 -0.255929 -2.28751 25.355
314 2 2.2208 5.21472 -2.03313 13.6068
9321 2 2.2208 -0.444873 9.23759 25.0247
9185 2 2.2208 -0.350185 11.9808 16.5629
382 1 -1.1104 9.44517 18.8112 26.6853
322 1 -1.1104 6.75177 -3.31844 15.1194
318 1 -1.1104 6.63352 -3.67587 18.0332
327 1 -1.1104 6.61009 -0.801189 18.0529
9221 2 2.2208 -0.395268 9.17972 19.3291
347 2 2.2208 13.702 3.58609 16.5834
331 1 -1.1104 6.65529 -0.566733 15.2223
355 2 2.2208 10.9577 0.605524 16.6235
356 1 -1.1104 12.1308 -3.48445 17.9609
357 1 -1.1104 12.2507 1.96314 17.9577
358 1 -1.1104 12.283 -3.6186 15.1685
360 1 -1.1104 12.2833 2.25274 15.1444
362 1 -1.1104 12.4929 -0.783607 18.0402
363 2 2.2208 10.8647 -2.20749 19.4079
365 1 -1.1104 12.3614 -0.800442 15.2684
367 1 -1.1104 9.28897 -3.39028 18.0848
368 1 -1.1104 9.52965 2.10185 17.917
369 2 2.2208 8.03187 0.635183 19.401
370 1 -1.1104 9.55445 -3.34521 15.0895
372 1 -1.1104 9.53792 2.10933 15.0634
374 2 2.2208 8.06571 -2.11894 16.5143
376 1 -1.1104 9.45097 -0.733913 18.0413
377 1 -1.1104 9.36878 -0.761584 15.1712
364 2 2.2208 10.9118 3.45566 19.2554
386 2 2.2208 10.9457 -2.06889 13.7961
375 2 2.2208 8.09735 3.66875 16.6483
387 2 2.2208 10.9209 3.39512 13.7108
366 1 -1.1104 12.3785 -0.653819 20.8808
384 1 -1.1104 9.53157 13.3386 26.5232
549 1 -1.1104 12.2415 18.9125 23.5388
388 2 2.2208 5.16594 6.4158 16.4884
389 2 2.2208 5.26138 11.9339 16.726
390 1 -1.1104 1.03683 7.91348 18.0044
392 1 -1.1104 1.01171 7.64935 15.1492
396 1 -1.1104 0.935094 4.95678 17.8407
397 1 -1.1104 1.15395 10.6206 17.9663
400 2 2.2208 5.17065 9.15764 19.5128
401 1 -1.1104 1.01964 4.91737 14.947
403 1 -1.1104 0.97327 10.4953 15.1923
409 1 -1.1104 3.93992 7.86329 17.9465
410 2 2.2208 2.47143 6.43602 19.29
411 2 2.2208 2.43378 11.9006 19.5113
412 1 -1.1104 3.85399 7.89505 15.3044
414 2 2.2208 2.45964 9.1855 16.5416
415 1 -1.1104 3.84998 4.93965 18.0634
416 1 -1.1104 3.87178 10.5805 18.0868
417 1 -1.1104 3.87625 5.06883 15.1501
419 1 -1.1104 3.78006 10.6115 15.2139
9182 2 2.2208 13.6335 11.916 19.3061
405 1 -1.1104 6.63818 5.12418 14.9657
398 1 -1.1104 6.57872 4.98957 17.938
391 1 -1.1104 6.55707 7.80458 17.9234
399 1 -1.1104 6.84583 10.6025 18.0264
407 1 -1.1104 6.46744 10.5345 15.3721
8539 2 2.2208 8.20453 -5.00028 13.6446
402 1 -1.1104 1.13211 5.02204 20.9157
383 2 2.2208 13.7166 -2.12714 16.5977
505 1 -1.1104 9.34881 18.7591 20.7685
394 1 -1.1104 6.68699 7.8262 15.2535
9075 2 2.2208 -0.384703 3.59705 13.6832
426 2 2.2208 10.9316 6.36369 16.4861
427 2 2.2208 10.7544 11.9725 16.5708
428 1 -1.1104 12.3216 7.68313 17.9815
429 1 -1.1104 12.2034 7.63619 15.055
431 1 -1.1104 12.3378 4.8557 17.9605
432 1 -1.1104 12.1727 10.5856 17.9218
433 2 2.2208 10.7573 9.22281 19.3312
434 1 -1.1104 12.2365 4.98604 15.154
436 1 -1.1104 12.263 10.5467 15.1996
438 1 -1.1104 9.43091 7.72943 18.0374
439 2 2.2208 8.01278 6.30832 19.3672
440 2 2.2208 8.0303 11.9335 19.5049
441 1 -1.1104 9.53195 7.88984 15.2287
443 2 2.2208 8.08942 9.1852 16.6537
444 1 -1.1104 9.50025 5.01705 18.0089
445 1 -1.1104 9.46473 10.4834 17.9917
446 1 -1.1104 9.49159 5.02181 15.1868
448 1 -1.1104 9.39973 10.6862 15.1447
425 2 2.2208 10.833 9.07862 13.7867
510 1 -1.1104 9.36673 16.1002 20.7576
650 2 2.2208 -0.519502 0.823073 16.5556
311 2 2.2208 -0.375082 -1.99336 13.6232
491 1 -1.1104 12.0619 13.3919 20.8578
452 2 2.2208 5.2383 17.5875 16.5664
453 1 -1.1104 1.11248 13.4013 17.9631
454 1 -1.1104 1.00177 19.1574 18.0093
457 1 -1.1104 1.01886 13.3696 15.1422
459 1 -1.1104 0.919353 19.0422 15.3223
465 1 -1.1104 1.04792 16.2328 18.0103
467 2 2.2208 5.19434 14.663 19.3377
468 2 2.2208 5.30865 20.4064 19.3258
469 1 -1.1104 0.984526 16.305 15.3648
473 1 -1.1104 3.93058 13.3526 17.958
474 1 -1.1104 3.87575 19.0145 18.0325
475 2 2.2208 2.45685 17.5802 19.2412
476 1 -1.1104 3.86136 13.391 15.2208
478 1 -1.1104 3.81913 18.9933 15.1658
480 2 2.2208 2.37073 14.9042 16.6068
481 2 2.2208 2.41962 20.3748 16.6342
482 1 -1.1104 3.85087 16.0978 17.7828
483 1 -1.1104 3.92762 16.1975 15.2011
463 1 -1.1104 6.55407 19.0617 15.1772
471 1 -1.1104 6.47154 16.1767 15.2496
503 1 -1.1104 9.23517 13.2224 20.9572
455 1 -1.1104 6.69503 13.4127 18.0948
456 1 -1.1104 6.47319 19.0039 17.945
451 2 2.2208 5.13997 14.7825 13.8718
9290 2 2.2208 -0.564591 14.8278 19.2825
633 1 -1.1104 9.43771 18.8995 23.8611
493 1 -1.1104 12.1785 18.9152 20.8339
632 1 -1.1104 9.43381 13.4672 23.7379
380 1 -1.1104 9.38043 16.1226 23.5754
9180 2 2.2208 13.595 9.09224 16.644
466 1 -1.1104 6.64792 16.2413 17.9326
461 1 -1.1104 6.59671 13.3111 15.408
487 2 2.2208 10.7018 17.5392 16.6038
488 1 -1.1104 12.185 13.282 18.1074
489 1 -1.1104 12.2331 18.8586 17.8094
490 1 -1.1104 12.1732 13.3411 15.2628
492 1 -1.1104 12.1056 18.7029 15.1171
494 1 -1.1104 12.3164 16.0796 17.9029
495 2 2.2208 10.8064 14.6938 19.3798
496 2 2.2208 10.9984 20.2808 19.3113
497 1 -1.1104 12.1226 16.0211 15.2768
499 1 -1.1104 9.47573 13.4316 18.0738
500 1 -1.1104 9.3665 18.8443 17.9406
501 2 2.2208 7.95209 17.3733 19.4422
502 1 -1.1104 9.41438 13.4032 15.2922
504 1 -1.1104 9.36492 19.0395 15.0628
506 2 2.2208 7.97615 14.8486 16.701
507 2 2.2208 8.01396 20.3971 16.7189
508 1 -1.1104 9.48293 16.1584 18.0427
509 1 -1.1104 9.31968 16.2837 15.232
498 1 -1.1104 12.2188 16.1776 20.7913
648 2 2.2208 7.96008 17.5889 13.7824
30 2 2.2208 10.9574 20.0658 13.5954
9441 2 2.2208 13.6393 17.4028 13.8509
344 1 -1.1104 4.10816 1.40336 20.651
9148 2 2.2208 -0.1826 3.72009 25.1551
332 1 -1.1104 6.36578 -0.652344 20.9692
515 2 2.2208 5.50595 0.883415 22.4597
516 1 -1.1104 0.614069 -3.65877 23.8893
517 1 -1.1104 1.30661 2.25705 23.9299
520 1 -1.1104 1.20185 -3.57137 26.6239
521 1 -1.1104 1.18359 2.04711 26.7219
525 2 2.2208 5.37446 -1.96034 25.1866
527 1 -1.1104 1.24818 -0.68472 26.1968
529 1 -1.1104 4.14062 -3.46016 23.7537
530 1 -1.1104 4.04597 2.41996 23.5388
531 2 2.2208 2.72819 0.815364 25.1761
532 1 -1.1104 3.96033 -3.39519 26.4909
533 1 -1.1104 4.12835 2.29634 26.4656
534 3 0 1.98712 -0.94948 22.0107
536 1 -1.1104 4.30502 -0.283146 23.9821
537 1 -1.1104 4.03805 -0.650019 26.6191
535 2 2.2208 2.42315 3.71237 22.3269
526 2 2.2208 5.37301 3.65736 25.0997
522 1 -1.1104 6.62107 -3.54408 26.4262
518 1 -1.1104 6.82995 -3.4154 23.5953
606 1 -1.1104 12.2825 19.05 26.2971
323 1 -1.1104 6.86882 -3.34838 20.7038
528 1 -1.1104 6.82995 -0.574209 26.5631
373 1 -1.1104 9.41855 2.0736 20.7237
371 1 -1.1104 9.60364 -3.58783 20.9356
325 1 -1.1104 6.76851 2.09771 20.9517
524 1 -1.1104 6.89512 -0.672645 23.7023
523 1 -1.1104 6.63786 2.2839 26.6591
519 1 -1.1104 6.83392 2.19901 23.9109
359 1 -1.1104 12.4002 -3.56166 20.7585
361 1 -1.1104 12.286 2.06467 20.7352
378 1 -1.1104 9.51415 -0.68016 20.9393
550 2 2.2208 11.0229 0.790798 22.222
551 1 -1.1104 12.4031 -3.49911 23.5994
552 1 -1.1104 12.168 2.15903 23.7527
553 1 -1.1104 12.382 -3.32406 26.501
554 1 -1.1104 12.2887 2.18305 26.443
555 1 -1.1104 12.4396 -0.807555 23.6715
556 2 2.2208 10.9049 -1.976 25.1843
557 2 2.2208 10.8094 3.62405 24.9721
558 1 -1.1104 12.2849 -0.577341 26.5169
559 1 -1.1104 9.60223 -3.48319 23.7654
560 1 -1.1104 9.51071 2.24011 23.5395
561 2 2.2208 8.17061 0.787771 25.1503
562 1 -1.1104 9.54915 -3.37579 26.4439
563 1 -1.1104 9.42883 2.23178 26.5855
564 2 2.2208 8.18187 -2.03705 22.3141
566 1 -1.1104 9.61113 -0.475495 23.7414
567 1 -1.1104 9.41045 -0.518186 26.583
565 2 2.2208 8.05671 3.53809 22.2624
542 2 2.2208 7.96368 20.5438 27.9629
462 1 -1.1104 6.60409 13.3552 20.9217
9147 2 2.2208 -0.280244 3.52979 19.4224
413 1 -1.1104 3.84615 7.59054 20.8375
404 1 -1.1104 1.12903 10.5926 20.8786
418 1 -1.1104 3.88443 4.79262 20.7684
420 1 -1.1104 3.92161 10.4993 20.8427
393 1 -1.1104 1.05975 7.7958 20.8711
579 2 2.2208 5.28366 6.24444 22.158
580 2 2.2208 5.21227 12.0125 22.2344
581 1 -1.1104 1.15637 7.82711 23.6949
583 1 -1.1104 0.998183 7.91639 26.5083
585 1 -1.1104 1.09113 5.05688 23.7913
586 1 -1.1104 1.05076 10.6245 23.6481
589 2 2.2208 5.33364 9.10267 24.9308
590 1 -1.1104 1.0605 5.06622 26.5783
591 1 -1.1104 0.967239 10.5874 26.3763
594 1 -1.1104 3.95647 7.74465 23.6413
595 2 2.2208 2.50758 6.42638 25.0504
596 2 2.2208 2.39117 12.0888 25.0632
597 1 -1.1104 3.91269 7.91904 26.366
598 2 2.2208 2.459 9.1812 22.3056
599 1 -1.1104 3.97173 5.0201 23.6216
600 1 -1.1104 3.87774 10.6395 23.7611
601 1 -1.1104 3.79085 5.02528 26.574
602 1 -1.1104 3.70964 10.7389 26.4776
587 1 -1.1104 6.68505 4.99588 23.5673
406 1 -1.1104 6.77184 4.96074 20.7084
592 1 -1.1104 6.56434 5.1272 26.3785
593 1 -1.1104 6.40103 10.6846 26.348
437 1 -1.1104 12.3526 10.403 20.7784
584 1 -1.1104 6.77662 7.88192 26.3478
395 1 -1.1104 6.68367 7.83059 20.7212
449 1 -1.1104 9.60065 10.5051 20.8208
430 1 -1.1104 12.3626 7.74261 20.8057
442 1 -1.1104 9.4118 7.85244 20.7525
435 1 -1.1104 12.2704 4.84497 20.5981
588 1 -1.1104 6.69548 10.4792 23.432
408 1 -1.1104 6.62813 10.6606 20.6385
447 1 -1.1104 9.52431 4.97234 20.7038
582 1 -1.1104 6.64687 7.79985 23.4588
610 1 -1.1104 9.33586 10.5915 26.4429
611 1 -1.1104 9.2243 5.04855 26.3947
612 1 -1.1104 9.46636 10.6215 23.6001
613 1 -1.1104 9.49619 5.00366 23.4817
614 2 2.2208 8.03153 9.15073 22.0555
615 1 -1.1104 9.50272 7.82726 26.4626
616 2 2.2208 7.96095 11.995 24.9597
617 2 2.2208 8.05401 6.46336 25.006
618 2 2.2208 10.9181 6.34779 22.0567
619 2 2.2208 10.9678 11.9542 22.2364
620 1 -1.1104 12.2774 7.62052 23.5918
621 1 -1.1104 12.3432 7.61767 26.4998
622 1 -1.1104 12.1667 4.87025 23.4829
623 1 -1.1104 12.3194 10.4915 23.6085
624 2 2.2208 10.8527 9.11832 24.8703
625 1 -1.1104 12.1204 4.93503 26.4397
626 1 -1.1104 12.3625 10.3524 26.3173
627 1 -1.1104 9.42163 7.82304 23.6571
486 1 -1.1104 6.51893 16.1794 23.6043
637 1 -1.1104 6.65408 16.2589 26.3337
9289 2 2.2208 -0.50319 20.4417 19.2976
470 1 -1.1104 0.993284 16.1776 20.7701
9248 2 2.2208 13.5129 14.7745 16.556
460 1 -1.1104 1.00688 18.8822 20.7185
484 1 -1.1104 3.7981 16.0992 20.5465
458 1 -1.1104 0.977529 13.3217 20.7751
477 1 -1.1104 3.87783 13.3591 20.7117
479 1 -1.1104 3.77629 18.8616 20.8072
647 2 2.2208 5.25756 17.6187 22.1775
350 2 2.2208 2.28469 14.7599 22.0863
352 1 -1.1104 3.96409 19.0584 26.3493
353 2 2.2208 2.28316 20.4056 22.0473
354 1 -1.1104 3.88049 16.237 23.4241
421 1 -1.1104 1.07179 16.0156 23.5524
512 1 -1.1104 3.76148 13.6028 26.5767
514 1 -1.1104 3.82093 16.3349 26.4186
541 2 2.2208 2.50402 17.6721 24.9912
634 1 -1.1104 3.88259 19.1172 23.5773
636 1 -1.1104 3.67463 13.4931 23.7007
638 1 -1.1104 0.93212 18.9604 26.5368
639 1 -1.1104 1.01544 16.3417 26.3056
640 1 -1.1104 0.972566 13.4307 26.3265
642 2 2.2208 5.21687 20.4675 24.9457
643 2 2.2208 5.0913 14.8921 25.0444
645 1 -1.1104 0.954049 19.0713 23.5499
646 1 -1.1104 0.9121 13.3522 23.5793
472 1 -1.1104 6.61289 16.0938 20.865
571 1 -1.1104 6.71321 19.0283 26.519
9153 2 2.2208 13.6544 11.8813 13.7181
607 1 -1.1104 12.3409 16.1337 23.5899
381 1 -1.1104 9.55382 16.0216 26.3689
547 1 -1.1104 12.2455 13.2841 23.5976
644 1 -1.1104 6.47418 13.4065 23.6728
351 2 2.2208 8.00418 14.7765 22.2459
635 1 -1.1104 6.71914 13.4284 26.5016
609 2 2.2208 10.7823 20.3652 24.9972
572 2 2.2208 8.1103 17.4842 24.9473
631 1 -1.1104 12.4225 16.364 26.3758
379 2 2.2208 7.97612 20.391 22.093
578 1 -1.1104 12.3352 13.2504 26.4629
641 1 -1.1104 6.64548 18.8427 23.5517
608 2 2.2208 10.9388 14.6663 24.9915
464 1 -1.1104 6.6342 19.0203 20.7631
546 2 2.2208 10.8486 17.5017 22.2251
9396 2 2.2208 -0.238896 6.37035 22.1206
570 2 2.2208 8.01171 3.59458 27.8565
313 2 2.2208 5.40707 3.55036 13.8325
310 2 2.2208 13.7828 20.3831 27.7624
605 2 2.2208 5.14736 12.0157 27.7634
450 2 2.2208 8.11241 6.4664 13.7456
422 2 2.2208 5.18467 9.0525 13.7767
511 2 2.2208 11.1367 17.4965 27.6816
385 2 2.2208 8.14787 0.702069 13.8398
349 2 2.2208 7.96085 14.8774 27.8346
423 2 2.2208 2.5333 12.0738 13.8737
424 2 2.2208 7.79438 11.9654 13.9227
651 2 2.2208 5.06229 23.2293 5.3202
652 2 2.2208 5.08609 28.8479 5.26061
653 1 -1.1104 1.06853 24.3676 0.934625
654 1 -1.1104 0.817061 24.5168 3.83722
655 1 -1.1104 0.94647 21.6971 1.20451
656 1 -1.1104 0.820106 27.241 1.24558
657 2 2.2208 5.25079 26.1655 2.35871
658 1 -1.1104 0.895857 21.7039 4.06358
659 1 -1.1104 1.00867 27.4071 4.01667
660 1 -1.1104 3.80359 24.4903 1.23103
661 2 2.2208 2.28408 23.0285 2.64652
662 2 2.2208 2.31432 28.6277 2.51904
663 1 -1.1104 3.54302 24.4739 4.10422
664 2 2.2208 2.33944 26.036 5.31459
665 1 -1.1104 3.75971 21.766 1.01996
666 1 -1.1104 3.71345 27.3173 1.03028
667 1 -1.1104 3.8335 21.7592 3.9479
668 1 -1.1104 3.71332 27.3228 3.80193
673 1 -1.1104 6.37164 24.5674 3.77234
674 1 -1.1104 6.47331 21.8378 1.08088
793 1 -1.1104 0.795099 27.3777 6.81824
677 1 -1.1104 6.34422 27.4376 3.78638
1335 1 -1.1104 3.69414 47.0613 3.82102
1316 1 -1.1104 0.880911 47.074 3.84032
949 1 -1.1104 12.0936 44.1776 9.54698
672 1 -1.1104 6.61535 24.7283 0.786018
675 1 -1.1104 6.65196 27.3308 0.992525
676 1 -1.1104 6.97238 21.6678 3.82894
678 3 0 10.294 23.3188 5.3019
679 2 2.2208 10.7496 28.8585 5.20078
680 1 -1.1104 12.3018 24.6737 0.936552
681 1 -1.1104 12.3019 24.4582 3.51942
682 1 -1.1104 12.5146 21.9672 0.811743
683 1 -1.1104 12.2384 27.4769 1.0669
684 2 2.2208 10.8645 25.8169 2.33886
685 1 -1.1104 12.0725 27.2787 3.69583
686 1 -1.1104 9.52521 24.6733 0.873125
687 2 2.2208 7.82446 23.3178 2.2804
688 2 2.2208 7.8979 28.8513 2.43336
689 1 -1.1104 8.90954 24.8435 3.6049
690 2 2.2208 7.79994 26.0138 5.12862
691 1 -1.1104 9.17042 22.0217 1.01478
692 1 -1.1104 9.35037 27.4027 0.998153
693 1 -1.1104 9.24888 27.5207 3.89921
943 1 -1.1104 9.45147 38.5678 12.4526
1523 1 -1.1104 3.86969 47.0917 12.0299
908 1 -1.1104 6.66927 44.1458 9.45233
1311 1 -1.1104 0.789892 47.1712 1.05315
987 2 2.2208 2.3827 37.1809 -0.276541
1558 1 -1.1104 9.23842 46.9622 9.40488
699 2 2.2208 5.2032 34.249 5.31561
700 1 -1.1104 0.835313 30.0299 1.12527
701 1 -1.1104 1.01636 35.7463 1.04803
703 1 -1.1104 1.04656 30.2314 3.89175
704 1 -1.1104 0.856932 35.746 3.76706
706 1 -1.1104 0.93535 32.8855 1.06401
707 2 2.2208 5.08314 31.4653 2.42715
708 2 2.2208 5.09048 37.1324 2.58884
709 1 -1.1104 0.841005 33.0224 3.84458
711 1 -1.1104 3.57899 30.0923 1.00841
712 1 -1.1104 3.80151 35.7573 0.961146
713 2 2.2208 2.3451 34.2875 2.46933
714 1 -1.1104 3.75027 30.006 3.91835
715 1 -1.1104 3.5514 35.8058 3.76679
716 2 2.2208 2.32727 31.5212 5.30383
717 2 2.2208 2.25324 37.1455 5.2294
718 1 -1.1104 3.6707 32.8593 1.11983
719 1 -1.1104 3.79647 32.8459 3.96982
705 1 -1.1104 6.75503 35.762 3.97693
721 1 -1.1104 6.45073 30.0985 0.918599
751 1 -1.1104 6.60274 38.4914 1.15208
854 1 -1.1104 3.76633 32.9568 6.74883
853 1 -1.1104 3.73689 35.7837 6.39701
846 1 -1.1104 0.953169 30.1306 6.76157
847 1 -1.1104 0.972313 35.8282 6.83058
1545 1 -1.1104 12.3596 47.0604 12.2976
953 1 -1.1104 12.2959 38.6022 12.3917
710 1 -1.1104 6.63988 32.9305 4.05582
723 1 -1.1104 6.40033 32.8826 1.17347
702 1 -1.1104 6.51364 35.5845 1.22353
722 1 -1.1104 6.53135 30.2291 3.74283
724 2 2.2208 10.7333 34.4138 5.39006
725 1 -1.1104 12.2017 30.2415 0.965195
726 1 -1.1104 12.2873 35.781 1.12722
727 1 -1.1104 12.129 30.0994 3.8608
728 1 -1.1104 12.3025 35.8565 4.0957
729 1 -1.1104 12.1489 33.0068 0.97378
730 2 2.2208 10.7595 31.5994 2.39598
731 2 2.2208 10.8659 37.2489 2.4211
732 1 -1.1104 12.1621 33.0244 3.76081
733 1 -1.1104 9.35302 30.1189 1.10448
734 1 -1.1104 9.3674 35.7873 0.99717
735 2 2.2208 8.04224 34.3532 2.49563
736 1 -1.1104 9.46193 30.3423 3.84997
737 1 -1.1104 9.37104 35.6678 3.69872
738 2 2.2208 8.10554 31.6048 5.23431
739 2 2.2208 8.05083 37.2013 5.35803
740 1 -1.1104 9.30521 32.8969 1.18353
741 1 -1.1104 9.4073 32.992 3.99832
848 1 -1.1104 6.54157 30.1469 6.58639
882 1 -1.1104 11.9362 32.8837 6.57021
884 1 -1.1104 9.21935 35.5895 6.84493
1506 1 -1.1104 6.45468 46.9847 6.42489
883 1 -1.1104 9.25517 30.0361 6.68331
697 1 -1.1104 12.1943 41.3895 12.3583
1287 2 2.2208 7.98032 37.1697 -0.148648
992 2 2.2208 7.91237 31.6694 -0.446145
939 2 2.2208 -0.465897 40.0829 10.8364
1370 1 -1.1104 9.32942 47.0592 3.95811
1505 1 -1.1104 0.843544 47.154 6.61645
967 2 2.2208 13.5532 40.013 8.06044
1547 1 -1.1104 12.1024 46.8659 9.41064
959 2 2.2208 13.5475 37.2848 5.36024
9764 2 2.2208 -0.525813 37.1844 13.7596
754 1 -1.1104 0.901028 38.7336 3.77917
763 1 -1.1104 3.74856 38.473 1.21416
749 1 -1.1104 0.957413 38.6899 1.01511
765 1 -1.1104 3.5818 38.5882 3.78892
743 2 2.2208 5.16613 40.1026 5.1831
744 2 2.2208 5.15704 45.6561 5.09296
745 1 -1.1104 0.921511 41.4568 0.974967
747 1 -1.1104 0.862054 41.6434 3.91777
750 1 -1.1104 0.792027 44.2795 1.01106
753 2 2.2208 5.0009 42.8733 2.36753
755 1 -1.1104 0.929936 44.3436 3.74841
758 1 -1.1104 3.91432 41.3651 1.07879