ITEM: TIMESTEP
60000
ITEM: NUMBER OF ATOMS
17760
ITEM: BOX BOUNDS pp pp pp
-4.0217702203464895e-01 2.7742177022035019e+01
-4.8320368008512959e+00 3.3291203680084863e+02
-3.9655932795832899e-01 2.7736559327958545e+01
ITEM: ATOMS id type q x y z
1 2 2.2208 5.24189 0.855355 5.17221
2 1 -1.1104 0.950922 -3.31267 1.25183
3 1 -1.1104 0.980017 2.27287 1.27351
6 1 -1.1104 1.0187 -3.33948 3.99911
7 1 -1.1104 1.13923 2.35779 3.96014
10 1 -1.1104 1.18881 -0.428403 0.917639
12 2 2.2208 5.21889 -2.07867 2.47585
13 2 2.2208 5.26249 3.72769 2.40342
14 1 -1.1104 0.898555 -0.399835 3.7938
16 1 -1.1104 3.75 -3.54233 0.926146
17 1 -1.1104 3.88056 2.43125 0.984442
18 2 2.2208 2.41523 0.94642 2.57998
19 1 -1.1104 3.7136 -3.37067 3.85008
20 1 -1.1104 3.98502 2.36095 3.88249
21 2 2.2208 2.39237 -1.93472 5.26379
22 2 2.2208 2.51495 3.71403 5.38496
23 1 -1.1104 3.85716 -0.570362 1.36353
24 1 -1.1104 3.67238 -0.349003 4.04254
540 2 2.2208 2.4539 3.66332 -0.244779
8382 2 2.2208 10.8371 -4.7279 5.2476
573 2 2.2208 2.41364 14.9061 -0.354858
539 2 2.2208 2.46096 -1.91295 -0.348328
29 2 2.2208 5.29819 -4.67961 5.26712
538 2 2.2208 5.34751 0.945118 -0.338284
8386 2 2.2208 2.56253 -4.70921 7.96987
230 2 2.2208 8.04769 -4.65292 8.14699
168 1 -1.1104 1.03969 -0.52304 6.6123
9063 2 2.2208 13.5416 17.7279 8.10746
8381 2 2.2208 8.1071 -4.63891 2.42966
9066 2 2.2208 -0.400603 12.1247 5.36546
11 1 -1.1104 6.67343 -0.510359 1.09582
4 1 -1.1104 6.65746 -3.40094 1.1543
9 1 -1.1104 6.68142 2.38117 3.79604
8 1 -1.1104 6.65086 -3.3015 3.87231
5 1 -1.1104 6.76731 2.35946 0.99209
15 1 -1.1104 6.68709 -0.491014 3.72766
31 2 2.2208 10.8045 0.952991 5.30712
32 1 -1.1104 12.2081 -3.40759 1.06922
33 1 -1.1104 12.1471 2.2277 1.11029
34 1 -1.1104 12.3261 -3.28978 3.78832
35 1 -1.1104 12.2836 2.27173 4.04254
36 1 -1.1104 12.244 -0.477 1.0363
37 2 2.2208 10.9261 -1.88754 2.417
39 1 -1.1104 12.1145 -0.419486 3.98007
40 1 -1.1104 9.47667 -3.2089 0.975947
41 1 -1.1104 9.45304 2.30567 0.942943
42 2 2.2208 8.06512 0.926316 2.47765
43 1 -1.1104 9.6298 -3.32265 3.69282
44 1 -1.1104 9.55309 2.24173 3.80219
45 2 2.2208 8.02756 -1.91277 5.22777
47 1 -1.1104 9.56691 -0.41831 1.24456
48 1 -1.1104 9.32991 -0.55056 3.90267
38 2 2.2208 10.8559 3.69539 2.39869
568 2 2.2208 10.8646 0.95756 -0.258911
8384 2 2.2208 13.6126 -4.7494 8.04009
8975 2 2.2208 13.6679 12.0745 8.11851
628 2 2.2208 10.8986 6.54816 -0.326074
9326 2 2.2208 13.7134 3.63093 -0.364089
603 2 2.2208 5.22372 6.62996 -0.435793
54 2 2.2208 5.18942 6.48822 5.16312
55 2 2.2208 5.24631 12.2232 5.34485
56 1 -1.1104 0.815476 8.13707 0.879705
58 1 -1.1104 0.868536 7.94634 3.78869
60 1 -1.1104 0.890849 5.02754 1.01242
61 1 -1.1104 0.944871 10.7177 1.0832
66 2 2.2208 5.21084 9.31204 2.39039
67 1 -1.1104 0.955819 5.18791 3.90432
68 1 -1.1104 0.941996 10.6859 3.85467
71 1 -1.1104 3.66533 7.95489 1.11635
72 2 2.2208 2.29279 6.55859 2.46772
73 2 2.2208 2.44746 12.1937 2.35602
74 1 -1.1104 3.71118 7.93495 3.80855
75 2 2.2208 2.49233 9.29877 5.30846
76 1 -1.1104 3.80123 5.12615 1.20701
77 1 -1.1104 3.83913 10.8304 1.03871
79 1 -1.1104 3.70409 4.99978 4.02219
80 1 -1.1104 3.81388 10.631 4.00086
8473 2 2.2208 10.8069 -4.74648 -0.265868
70 1 -1.1104 6.59887 10.7465 3.91177
232 1 -1.1104 0.98692 7.9373 6.6559
52 2 2.2208 7.91746 20.3382 10.8594
604 2 2.2208 2.41922 9.44079 -0.280295
46 2 2.2208 8.04797 3.53209 5.29311
59 1 -1.1104 6.70003 7.90979 3.76925
629 2 2.2208 8.05835 9.32064 -0.364071
8992 2 2.2208 -0.364829 9.41029 8.18861
200 2 2.2208 13.5891 17.8406 2.58742
57 1 -1.1104 6.55106 7.91055 1.10094
69 1 -1.1104 6.69714 5.09802 3.78109
64 1 -1.1104 6.67911 10.6668 1.15065
63 1 -1.1104 6.60137 5.15236 0.907233
84 2 2.2208 10.7937 6.5118 5.36562
85 2 2.2208 10.6783 12.2254 5.43972
86 1 -1.1104 12.178 7.72635 1.06361
87 1 -1.1104 12.1871 7.93456 3.83082
88 1 -1.1104 12.5253 4.9916 1.10788
89 1 -1.1104 12.3749 10.5842 1.09202
91 2 2.2208 10.9057 9.29432 2.47187
92 1 -1.1104 12.1801 5.21515 3.90618
93 1 -1.1104 12.2464 10.7595 3.96727
94 1 -1.1104 9.39911 8.09344 1.01596
95 2 2.2208 8.01561 6.49453 2.50444
96 2 2.2208 8.00459 12.0674 2.43413
97 1 -1.1104 9.52189 7.72117 3.93162
98 2 2.2208 7.94081 9.31419 5.37765
99 1 -1.1104 9.43495 5.23023 1.01145
100 1 -1.1104 9.56412 10.8231 0.994978
102 1 -1.1104 9.37163 5.02325 4.00876
103 1 -1.1104 9.42154 10.5521 3.71252
105 1 -1.1104 12.2038 16.1762 12.3798
264 1 -1.1104 12.3285 5.05696 6.66848
8985 2 2.2208 -0.348348 12.1676 10.9469
9151 2 2.2208 13.6388 15.0077 -0.268436
30 2 2.2208 10.8218 20.3422 13.4322
106 2 2.2208 5.04759 17.7488 5.31736
107 1 -1.1104 0.989217 13.4451 1.13384
109 1 -1.1104 1.17219 19.1605 0.9711
113 1 -1.1104 1.04035 13.5807 4.10095
114 1 -1.1104 0.834403 19.1607 3.94007
116 1 -1.1104 0.985148 16.254 1.24958
119 2 2.2208 5.06322 15.0555 2.46377
120 2 2.2208 5.09668 20.6029 2.51542
121 1 -1.1104 0.773514 16.5167 4.01138
123 1 -1.1104 3.78549 13.6069 0.999488
125 1 -1.1104 3.9906 19.283 1.13538
127 2 2.2208 2.32237 17.8476 2.50614
128 1 -1.1104 3.83581 13.5721 3.90099
129 1 -1.1104 3.63579 19.158 3.9537
130 2 2.2208 2.3827 14.9107 5.37355
131 2 2.2208 2.38777 20.6065 5.39283
132 1 -1.1104 3.72009 16.3617 1.05898
134 1 -1.1104 3.62673 16.3332 3.84332
139 1 -1.1104 6.33823 19.174 3.91303
122 1 -1.1104 6.46379 16.4407 4.05166
140 1 -1.1104 6.52476 16.4813 1.1054
115 1 -1.1104 6.63616 13.6647 3.75541
827 1 -1.1104 9.06025 20.8808 7.02381
231 1 -1.1104 9.49454 13.4721 9.59464
348 2 2.2208 2.48687 20.571 -0.369028
83 1 -1.1104 12.2595 13.55 9.54117
110 1 -1.1104 6.53391 13.543 1.20113
138 1 -1.1104 6.92921 19.3462 1.28744
141 2 2.2208 10.7884 17.6684 5.33491
142 1 -1.1104 12.2152 13.5335 1.2066
144 1 -1.1104 12.2079 19.0566 1.05902
146 1 -1.1104 12.3188 13.5798 4.02103
147 1 -1.1104 12.2974 19.1452 4.08049
148 1 -1.1104 12.1833 16.2716 1.01163
150 2 2.2208 10.8598 14.8517 2.5425
152 1 -1.1104 12.1962 16.4026 3.97814
153 1 -1.1104 9.30102 13.6178 1.08525
155 1 -1.1104 9.04577 18.8565 4.51312
156 2 2.2208 7.89787 17.8305 2.64045
157 1 -1.1104 9.50148 13.4495 3.9702
158 2 2.2208 7.98818 14.9049 5.41677
159 2 2.2208 7.6585 20.5039 5.37057
160 1 -1.1104 9.29526 16.6616 1.07015
162 1 -1.1104 9.41176 16.2051 3.79748
82 1 -1.1104 12.3119 19.0349 12.3001
53 1 -1.1104 9.41708 16.3105 12.3091
170 1 -1.1104 4.01417 -3.26973 6.7345
166 1 -1.1104 6.60196 -3.35061 6.94759
201 2 2.2208 5.3636 -4.74155 10.9787
163 1 -1.1104 9.52891 13.5596 12.3021
171 1 -1.1104 4.06547 2.29924 6.64042
165 1 -1.1104 1.18631 2.38155 6.69145
164 1 -1.1104 1.04516 -3.3429 6.62543
172 1 -1.1104 3.6661 -0.563246 6.6969
173 2 2.2208 5.24281 0.856831 10.9688
174 1 -1.1104 1.15303 -3.32514 12.244
175 1 -1.1104 0.932153 2.32109 12.406
178 1 -1.1104 1.13236 -3.41644 9.42368
179 1 -1.1104 1.19584 2.18301 9.67735
182 1 -1.1104 1.04273 -0.598186 12.3563
184 2 2.2208 5.19878 -1.88825 8.09146
185 2 2.2208 5.35719 3.60816 8.09985
186 1 -1.1104 1.14371 -0.484396 9.43568
188 1 -1.1104 4.0134 -3.39757 12.3559
189 1 -1.1104 3.85469 2.35212 12.3322
190 2 2.2208 2.47522 0.90746 8.08417
191 1 -1.1104 3.95975 -3.40413 9.47181
192 1 -1.1104 3.98226 2.29024 9.62864
193 2 2.2208 2.56029 -1.95433 11.0193
195 1 -1.1104 3.84991 -0.604562 12.4356
196 1 -1.1104 3.90639 -0.545405 9.67245
194 2 2.2208 2.42498 3.72353 10.9609
180 1 -1.1104 6.67595 -3.21121 9.55254
167 1 -1.1104 6.78186 2.01332 6.63947
177 1 -1.1104 6.78134 2.26085 12.325
176 1 -1.1104 6.80996 -3.48499 12.4528
183 1 -1.1104 6.69105 -0.546143 12.2929
181 1 -1.1104 6.73326 2.29604 9.58708
630 2 2.2208 10.8078 12.1815 -0.37279
197 1 -1.1104 9.51224 19.0718 12.0798
9076 2 2.2208 -0.309485 0.917314 5.30549
8379 2 2.2208 -0.296631 -4.85495 5.27888
27 2 2.2208 10.9787 17.5662 10.9634
187 1 -1.1104 6.62632 -0.444905 9.49078
169 1 -1.1104 6.68541 -0.706517 6.56769
206 1 -1.1104 9.37395 -3.33038 6.5696
204 1 -1.1104 12.271 2.1508 6.55767
208 1 -1.1104 9.36838 -0.535016 6.82327
207 1 -1.1104 9.4878 2.27668 6.69211
203 1 -1.1104 12.2247 -3.41215 6.52739
205 1 -1.1104 12.2581 -0.665395 6.75482
210 2 2.2208 10.942 0.835809 10.9476
211 1 -1.1104 12.2376 -3.55852 12.3025
212 1 -1.1104 12.3899 2.16141 12.3274
213 1 -1.1104 12.2211 -3.41819 9.29382
214 1 -1.1104 12.2598 2.26503 9.45181
215 1 -1.1104 12.3127 -0.66297 12.2366
216 2 2.2208 10.7026 -1.99937 8.08829
217 2 2.2208 10.8006 3.5856 8.03679
218 1 -1.1104 12.3762 -0.49493 9.45481
219 1 -1.1104 9.52461 -3.28754 12.3721
220 1 -1.1104 9.56402 2.27081 12.2857
221 2 2.2208 8.02845 0.806573 8.13075
222 1 -1.1104 9.40766 -3.33015 9.57826
223 1 -1.1104 9.47925 2.18094 9.53763
224 2 2.2208 8.09224 -1.97091 11.0041
225 2 2.2208 8.0841 3.63754 10.945
226 1 -1.1104 9.53781 -0.419112 12.3881
227 1 -1.1104 9.36402 -0.526623 9.57032
137 1 -1.1104 12.2943 16.256 9.5744
154 1 -1.1104 9.39944 13.6979 6.77926
145 1 -1.1104 11.9811 18.969 6.84217
234 1 -1.1104 1.11458 5.15723 6.64383
78 1 -1.1104 3.84525 10.5941 6.85174
236 1 -1.1104 3.8246 7.70039 6.58593
237 1 -1.1104 4.01681 5.0199 6.77902
62 1 -1.1104 0.97502 10.7373 6.73017
238 2 2.2208 5.2649 6.48396 10.9342
239 2 2.2208 5.28025 12.1518 11.0028
240 1 -1.1104 1.02833 8.01364 12.4257
242 1 -1.1104 1.03112 7.98345 9.49456
244 1 -1.1104 1.00614 5.17312 12.3815
245 1 -1.1104 1.04729 10.7104 12.405
248 2 2.2208 5.19164 9.31561 8.15297
249 1 -1.1104 0.937821 5.05241 9.58021
250 1 -1.1104 1.03251 10.9488 9.61501
253 1 -1.1104 3.87707 8.0488 12.2686
254 2 2.2208 2.42134 6.45476 8.0711
255 2 2.2208 2.43632 12.1994 8.18836
256 1 -1.1104 3.86745 7.85608 9.44994
257 2 2.2208 2.42764 9.32553 11.0111
258 1 -1.1104 3.83301 5.14426 12.3803
259 1 -1.1104 3.89283 10.8587 12.3756
260 1 -1.1104 3.92076 5.03302 9.55147
261 1 -1.1104 3.88006 10.8196 9.55596
241 1 -1.1104 6.71492 7.87933 12.1928
252 1 -1.1104 6.60933 10.7141 9.71493
235 1 -1.1104 6.71665 4.96058 6.69487
233 1 -1.1104 6.54944 7.93433 6.59347
65 1 -1.1104 6.71734 10.7632 6.77552
263 1 -1.1104 12.2531 7.86889 6.68729
81 1 -1.1104 12.2857 13.3961 12.4011
251 1 -1.1104 6.63857 5.11222 9.58309
246 1 -1.1104 6.78704 5.1795 12.3229
90 1 -1.1104 12.2195 10.5984 6.87312
265 1 -1.1104 9.36104 7.99784 6.73243
243 1 -1.1104 6.65449 7.8941 9.4908
247 1 -1.1104 6.73053 10.6684 12.3828
101 1 -1.1104 9.42461 10.7888 6.70801
267 1 -1.1104 9.4292 4.99361 6.8495
262 1 -1.1104 9.5462 10.7394 9.53226
266 1 -1.1104 9.47466 4.93689 9.47261
268 1 -1.1104 9.5349 10.6947 12.2142
269 1 -1.1104 9.55157 5.01004 12.2311
270 2 2.2208 8.12041 9.31747 10.8457
271 1 -1.1104 9.40922 7.86281 9.58672
272 2 2.2208 8.07285 12.2377 8.1528
273 2 2.2208 7.96825 6.34585 8.02374
274 2 2.2208 10.9062 6.35656 10.9033
275 2 2.2208 10.8621 11.9775 10.8792
276 1 -1.1104 12.3014 7.79247 12.2235
277 1 -1.1104 12.2694 8.02637 9.48268
278 1 -1.1104 12.2722 4.95837 12.3886
279 1 -1.1104 12.2183 10.608 12.3021
280 2 2.2208 10.8176 9.23849 8.15846
281 1 -1.1104 12.2416 5.14906 9.55962
282 1 -1.1104 12.3772 10.7785 9.66443
283 1 -1.1104 9.53572 7.86143 12.3463
108 1 -1.1104 0.96182 13.5969 6.83963
300 1 -1.1104 1.01602 19.2013 6.74075
304 1 -1.1104 6.51921 16.2905 12.3667
126 1 -1.1104 3.81515 19.1699 6.74027
117 1 -1.1104 0.993451 16.3453 6.75014
133 1 -1.1104 3.59204 16.4243 6.85685
124 1 -1.1104 3.8027 13.495 6.70267
284 1 -1.1104 3.5497 19.2493 12.2577
285 1 -1.1104 3.96886 13.721 12.2824
289 1 -1.1104 0.948625 19.1875 9.54454
290 1 -1.1104 0.972246 16.3467 9.56809
291 2 2.2208 5.11595 20.4982 8.18514
292 1 -1.1104 1.13435 13.7611 9.6185
293 2 2.2208 5.09148 14.9642 8.21005
296 1 -1.1104 0.747564 19.2965 12.3609
297 1 -1.1104 1.14849 13.4857 12.3844
298 2 2.2208 5.10113 17.738 11.0621
299 1 -1.1104 3.71868 19.1363 9.47634
301 2 2.2208 2.20108 17.7922 8.10872
302 1 -1.1104 3.82776 16.4167 9.54651
303 1 -1.1104 3.90058 13.617 9.62097
305 1 -1.1104 0.798098 16.4789 12.3649
306 1 -1.1104 3.64485 16.464 12.5845
307 2 2.2208 2.20359 20.6835 10.9149
308 2 2.2208 2.36342 15.0616 11.109
288 1 -1.1104 6.64198 13.6266 9.49323
286 1 -1.1104 6.46339 19.0947 9.65661
112 1 -1.1104 6.58102 19.0459 6.86728
118 1 -1.1104 6.50662 16.2046 6.86152
111 1 -1.1104 6.68876 13.5611 6.64457
295 1 -1.1104 6.78897 13.4766 12.3496
287 1 -1.1104 6.61281 16.3016 9.65932
294 1 -1.1104 6.60255 18.93 12.3782
136 2 2.2208 11.0055 20.5924 8.27436
135 2 2.2208 10.8734 15.0073 8.1812
104 1 -1.1104 12.2508 19.1036 9.59985
161 1 -1.1104 9.21092 16.4973 6.62862
209 1 -1.1104 9.28305 19.1022 9.38646
149 1 -1.1104 12.0998 16.177 6.84613
143 1 -1.1104 12.2447 13.3618 6.63612
202 1 -1.1104 9.34895 16.2964 9.45805
49 2 2.2208 8.02135 14.8783 10.9016
309 2 2.2208 7.79437 17.553 8.27846
511 2 2.2208 10.9143 17.8095 -0.370229
8974 2 2.2208 13.7084 6.42685 8.10951
349 2 2.2208 8.00956 15.0958 -0.316074
575 2 2.2208 13.6755 -1.98408 -0.337531
8979 2 2.2208 13.6104 9.31837 10.9315
199 2 2.2208 -0.310973 0.862111 10.9696
8791 2 2.2208 -0.317457 3.73253 8.20616
8383 2 2.2208 -0.293855 -4.81281 10.9064
8792 2 2.2208 13.5961 9.25877 5.37897
50 2 2.2208 13.6237 0.982346 2.53583
8764 2 2.2208 -0.419429 14.9431 8.18236
9064 2 2.2208 -0.367832 6.51464 5.28214
51 2 2.2208 13.5903 -1.92639 5.27605
387 2 2.2208 10.916 3.71235 13.6305
425 2 2.2208 10.9674 9.23397 13.6864
450 2 2.2208 8.03728 6.51666 13.6124
605 2 2.2208 5.27954 12.2543 -0.287408
310 2 2.2208 13.6035 20.5448 -0.192924
543 2 2.2208 5.27388 -4.69584 -0.323442
648 2 2.2208 8.08344 17.6673 13.676
569 2 2.2208 8.04543 -1.99054 -0.297682
542 2 2.2208 7.84466 20.7546 -0.348475
574 2 2.2208 4.99308 17.6898 -0.288351
315 2 2.2208 5.32152 0.908757 16.5729
316 1 -1.1104 0.909589 -3.14481 17.7024
317 1 -1.1104 1.01686 2.16542 17.9244
320 1 -1.1104 1.10684 -3.45675 14.9492
321 1 -1.1104 1.14032 2.27682 15.0731
326 1 -1.1104 1.09797 -0.500883 18.2359
328 2 2.2208 5.38116 -2.04668 19.2646
330 1 -1.1104 1.01431 -0.633677 15.0498
333 1 -1.1104 4.06728 -3.3254 17.8849
334 1 -1.1104 3.95686 2.41012 17.9169
335 2 2.2208 2.47422 1.14092 19.2915
336 1 -1.1104 3.86958 -3.38943 15.0676
338 1 -1.1104 3.81101 2.17919 15.0482
340 2 2.2208 2.50231 -2.05792 16.449
342 1 -1.1104 3.99286 -0.459871 18.2553
343 1 -1.1104 3.83775 -0.601591 15.3597
329 2 2.2208 5.33663 3.71972 19.2651
339 1 -1.1104 1.32535 2.48706 20.6731
9136 1 -1.1104 0.826668 -3.47719 20.3672
341 2 2.2208 2.44276 3.69202 16.5221
9185 2 2.2208 -0.319614 12.1453 16.5936
312 2 2.2208 2.32315 0.85573 13.7075
8583 2 2.2208 -0.377473 -4.85338 16.3767
331 1 -1.1104 6.75285 -0.500573 15.1297
8539 2 2.2208 8.15985 -4.8496 13.8272
607 1 -1.1104 12.3808 16.4077 23.5268
8396 2 2.2208 2.40658 -4.8269 13.7031
313 2 2.2208 5.22634 3.64554 13.7493
546 2 2.2208 10.9404 17.7171 22.219
8436 2 2.2208 8.01574 -4.86472 24.9566
8547 2 2.2208 2.43723 -4.69328 19.3426
324 1 -1.1104 6.7464 2.21993 15.1707
327 1 -1.1104 6.69246 -0.543851 17.7816
319 1 -1.1104 6.71728 2.27004 17.9779
318 1 -1.1104 6.85183 -3.25752 17.8389
322 1 -1.1104 6.72412 -3.39693 15.0412
355 2 2.2208 10.9334 0.89753 16.4902
356 1 -1.1104 12.2406 -3.30757 17.9146
357 1 -1.1104 12.2077 2.29353 18.0943
358 1 -1.1104 12.3721 -3.25449 15.2269
360 1 -1.1104 12.2919 2.38967 15.1698
362 1 -1.1104 12.1029 -0.670365 18.1192
363 2 2.2208 10.8612 -1.96339 19.4109
365 1 -1.1104 12.3705 -0.430059 15.1666
367 1 -1.1104 9.43641 -3.39592 17.9231
368 1 -1.1104 9.42661 2.15516 17.7978
369 2 2.2208 8.06602 0.810141 19.344
370 1 -1.1104 9.46036 -3.30701 15.1011
372 1 -1.1104 9.53841 2.34469 14.9354
374 2 2.2208 8.11596 -1.89647 16.4463
376 1 -1.1104 9.51039 -0.576204 17.8724
377 1 -1.1104 9.61672 -0.570246 15.218
375 2 2.2208 8.1639 3.56772 16.4676
364 2 2.2208 10.8228 3.6454 19.3263
9396 2 2.2208 -0.296022 6.65695 22.2177
8542 2 2.2208 10.7746 -4.78492 16.5996
9292 2 2.2208 -0.398425 14.9643 13.7728
378 1 -1.1104 9.24629 -0.686713 20.802
545 2 2.2208 2.46901 -4.74062 24.9416
644 1 -1.1104 6.67235 13.6133 23.6517
422 2 2.2208 5.31227 9.39884 13.7185
388 2 2.2208 5.36962 6.58553 16.6254
389 2 2.2208 5.24692 12.0787 16.6763
390 1 -1.1104 1.18633 7.66178 18.0719
392 1 -1.1104 0.96619 7.8236 15.1753
396 1 -1.1104 1.10289 5.04556 17.9049
397 1 -1.1104 1.16937 10.8273 18.0134
400 2 2.2208 5.25014 9.42464 19.3791
401 1 -1.1104 1.10652 5.05628 15.1587
403 1 -1.1104 1.20529 10.716 15.2304
409 1 -1.1104 3.81155 8.06319 18.1209
410 2 2.2208 2.61149 6.4279 19.3527
411 2 2.2208 2.41747 12.2614 19.4995
412 1 -1.1104 3.74895 7.86704 15.3319
414 2 2.2208 2.48113 9.34553 16.4885
415 1 -1.1104 3.93445 5.41044 17.8728
416 1 -1.1104 3.88671 10.7484 17.8274
417 1 -1.1104 4.05194 5.06505 15.1929
419 1 -1.1104 3.99708 10.6757 15.0041
407 1 -1.1104 6.70439 10.5409 15.2058
391 1 -1.1104 6.66055 8.01608 17.9587
26 2 2.2208 2.45164 6.52663 13.755
9075 2 2.2208 -0.294401 3.77936 13.7837
345 2 2.2208 13.6559 0.932836 19.4717
384 1 -1.1104 9.32922 13.6725 26.3186
424 2 2.2208 8.14144 11.9289 13.8372
398 1 -1.1104 6.66485 4.9724 17.7769
405 1 -1.1104 6.91172 5.05161 15.0251
8582 2 2.2208 5.30285 -4.74048 16.4554
399 1 -1.1104 6.73493 10.8365 17.8964
394 1 -1.1104 6.76613 7.77401 15.1798
426 2 2.2208 10.9155 6.54079 16.4568
427 2 2.2208 10.9027 12.207 16.5503
428 1 -1.1104 12.4972 7.92277 17.8332
429 1 -1.1104 12.4039 7.86891 15.0629
431 1 -1.1104 12.2539 5.1143 17.9588
432 1 -1.1104 12.2979 10.8211 17.909
433 2 2.2208 10.9586 9.43085 19.2979
434 1 -1.1104 12.4802 5.28136 15.2102
436 1 -1.1104 12.3663 10.7508 15.2922
438 1 -1.1104 9.5569 7.86079 17.8599
439 2 2.2208 8.11376 6.40019 19.1548
440 2 2.2208 8.08498 12.1484 19.4125
441 1 -1.1104 9.56718 7.92317 15.0227
443 2 2.2208 8.11371 9.25083 16.4564
444 1 -1.1104 9.49091 5.15637 17.9306
445 1 -1.1104 9.43452 10.7002 17.9555
446 1 -1.1104 9.6526 5.06085 15.1957
448 1 -1.1104 9.57054 10.6478 15.0828
406 1 -1.1104 6.60169 5.26253 20.5954
549 1 -1.1104 12.2903 19.385 23.5894
451 2 2.2208 5.25459 14.9244 13.8174
452 2 2.2208 5.22874 17.7934 16.645
453 1 -1.1104 1.14173 13.7268 17.9289
454 1 -1.1104 0.896674 19.4097 17.9078
457 1 -1.1104 0.951916 13.5223 15.2769
459 1 -1.1104 0.863625 19.1841 15.1469
465 1 -1.1104 1.09371 16.6063 17.9886
467 2 2.2208 5.26402 14.9031 19.5367
468 2 2.2208 5.19852 20.664 19.4511
469 1 -1.1104 1.08275 16.2829 15.1736
473 1 -1.1104 4.0392 13.7065 18.0289
474 1 -1.1104 3.81661 19.2051 18.0184
475 2 2.2208 2.40543 17.8072 19.3762
476 1 -1.1104 3.81387 13.3846 15.0768
478 1 -1.1104 3.81546 19.095 15.1244
480 2 2.2208 2.43789 14.8885 16.5395
481 2 2.2208 2.24771 20.5441 16.6055
482 1 -1.1104 3.81175 16.3242 17.8563
483 1 -1.1104 3.96046 16.4164 15.295
456 1 -1.1104 6.64931 19.2627 18.0177
463 1 -1.1104 6.54802 19.1403 15.1386
637 1 -1.1104 6.64948 16.4207 26.5305
485 2 2.2208 2.36442 17.9101 13.8224
649 2 2.2208 5.13461 20.5559 13.7291
8471 2 2.2208 10.9202 -4.74544 22.1243
471 1 -1.1104 6.67589 16.372 15.1654
461 1 -1.1104 6.6958 13.5796 15.167
466 1 -1.1104 6.65086 16.3535 18.065
455 1 -1.1104 6.69763 13.5388 18.0705
487 2 2.2208 10.9378 17.7232 16.6528
488 1 -1.1104 12.3502 13.4453 18.1689
489 1 -1.1104 12.2648 18.9524 17.9727
490 1 -1.1104 12.3029 13.6883 15.1432
492 1 -1.1104 12.2031 19.3931 15.0997
494 1 -1.1104 12.2431 16.1987 18.0113
495 2 2.2208 10.9382 14.8789 19.3372
496 2 2.2208 10.8428 20.701 19.2677
497 1 -1.1104 12.2584 16.4463 15.2314
499 1 -1.1104 9.53439 13.4893 17.8564
500 1 -1.1104 9.49721 18.9818 18.018
501 2 2.2208 8.16197 17.657 19.368
502 1 -1.1104 9.3402 13.4582 15.1151
504 1 -1.1104 9.33442 19.4382 15.18
506 2 2.2208 7.92509 14.8495 16.5619
507 2 2.2208 7.86629 20.4738 16.615
508 1 -1.1104 9.40341 16.1425 17.9896
509 1 -1.1104 9.52748 16.492 15.1473
9145 2 2.2208 13.6059 6.52208 24.975
311 2 2.2208 -0.291467 -1.94168 13.689
385 2 2.2208 8.15409 0.898934 13.7448
423 2 2.2208 2.39167 12.0971 13.8339
337 1 -1.1104 3.81137 -3.38665 20.5415
344 1 -1.1104 4.11582 2.02603 20.7872
9181 2 2.2208 13.6432 6.44808 19.4001
332 1 -1.1104 6.43886 -0.592067 20.7003
513 2 2.2208 10.9058 14.9133 13.7293
515 2 2.2208 5.51235 1.00401 22.2729
516 1 -1.1104 0.703994 -3.53263 23.8551
517 1 -1.1104 1.35079 2.56244 23.9765
520 1 -1.1104 1.14243 -3.26906 26.5461
521 1 -1.1104 1.31933 2.1216 26.6679
525 2 2.2208 5.27417 -1.99328 24.8213
527 1 -1.1104 1.2668 -0.65447 25.8298
529 1 -1.1104 3.95124 -3.46695 23.721
530 1 -1.1104 4.17552 2.44627 23.5536
531 2 2.2208 2.74467 1.01614 24.9938
532 1 -1.1104 3.97669 -3.30033 26.4331
533 1 -1.1104 4.02848 2.35766 26.4797
534 3 0 1.89758 -0.907344 22.0198
536 1 -1.1104 4.14357 -0.299656 23.6624
537 1 -1.1104 3.92255 -0.434754 26.602
535 2 2.2208 2.46915 3.73185 22.2938
526 2 2.2208 5.3879 3.74337 24.979
544 2 2.2208 5.10141 -4.77296 22.1111
9148 2 2.2208 -0.193071 3.76035 24.9607
8504 2 2.2208 13.6005 -4.76052 25.1486
379 2 2.2208 8.11981 20.591 22.2114
366 1 -1.1104 12.3572 -0.608517 20.8027
386 2 2.2208 10.9195 -2.00924 13.7008
518 1 -1.1104 6.63964 -3.44526 23.5577
361 1 -1.1104 12.1331 2.12637 20.7568
323 1 -1.1104 6.73489 -3.45222 20.6675
373 1 -1.1104 9.52069 2.238 20.6009
528 1 -1.1104 6.80544 -0.468017 26.21
371 1 -1.1104 9.57937 -3.26998 20.7981
325 1 -1.1104 6.78107 2.40858 20.7253
523 1 -1.1104 6.7026 2.20322 26.3352
359 1 -1.1104 12.3796 -3.35562 20.8518
522 1 -1.1104 6.73369 -3.37712 26.5352
524 1 -1.1104 6.85232 -0.563997 23.5197
519 1 -1.1104 6.9165 2.37377 23.4758
550 2 2.2208 10.9405 0.852643 22.1795
551 1 -1.1104 12.2897 -3.33297 23.5227
552 1 -1.1104 12.3564 2.37683 23.6117
553 1 -1.1104 12.2597 -3.41287 26.4163
554 1 -1.1104 12.2951 2.29561 26.3463
555 1 -1.1104 12.267 -0.471592 23.7557
556 2 2.2208 10.7931 -1.97063 25.0708
557 2 2.2208 10.9142 3.70734 25.0173
558 1 -1.1104 12.3766 -0.629478 26.3279
559 1 -1.1104 9.34787 -3.53791 23.6003
560 1 -1.1104 9.56631 2.17448 23.5852
561 2 2.2208 8.24802 0.79138 24.9153
562 1 -1.1104 9.3761 -3.40757 26.4386
563 1 -1.1104 9.5198 2.47941 26.3515
564 2 2.2208 8.05781 -2.06976 22.1436
566 1 -1.1104 9.56379 -0.569258 23.5809
567 1 -1.1104 9.54056 -0.495748 26.4488
565 2 2.2208 8.15341 3.78088 22.1006
404 1 -1.1104 1.13251 10.8706 20.8561
393 1 -1.1104 1.03887 8.02804 20.8268
420 1 -1.1104 3.93791 10.816 20.7204
402 1 -1.1104 1.14946 5.17838 20.805
413 1 -1.1104 3.91609 7.83588 20.6936
418 1 -1.1104 3.84991 4.99654 20.8614
579 2 2.2208 5.17413 6.66644 22.1583
580 2 2.2208 5.28491 12.2004 22.2735
581 1 -1.1104 1.12601 7.87113 23.6353
583 1 -1.1104 0.885273 7.8772 26.3215
585 1 -1.1104 1.07825 5.21478 23.6113
586 1 -1.1104 1.06907 10.6465 23.6186
589 2 2.2208 5.22656 9.38744 25.0681
590 1 -1.1104 1.11552 5.03779 26.371
591 1 -1.1104 0.962331 10.8759 26.4458
594 1 -1.1104 3.84581 8.09326 23.6002
595 2 2.2208 2.4202 6.56532 24.9995
596 2 2.2208 2.37765 12.0846 25.1106
597 1 -1.1104 3.66404 8.14215 26.3894
598 2 2.2208 2.51265 9.35564 22.2284
599 1 -1.1104 3.88539 5.26914 23.6456
600 1 -1.1104 3.75477 10.8684 23.5663
601 1 -1.1104 3.83859 5.22351 26.5502
602 1 -1.1104 3.86536 10.847 26.4767
593 1 -1.1104 6.74236 10.7839 26.686
588 1 -1.1104 6.50782 10.95 23.9056
609 2 2.2208 10.8596 20.6009 25.1248
408 1 -1.1104 6.62094 10.7196 20.8999
9250 2 2.2208 13.6964 17.8595 19.3721
587 1 -1.1104 6.77628 5.27765 23.4677
435 1 -1.1104 12.2647 5.02871 20.7782
442 1 -1.1104 9.38426 7.9291 20.6394
449 1 -1.1104 9.53403 10.7842 20.7293
430 1 -1.1104 12.2781 7.95188 20.6037
395 1 -1.1104 6.63106 8.01118 20.8028
447 1 -1.1104 9.38073 5.12465 20.5889
582 1 -1.1104 6.73671 7.89205 23.4665
584 1 -1.1104 6.56957 7.92591 26.2925
592 1 -1.1104 6.7471 5.1542 26.2685
437 1 -1.1104 12.3219 10.6793 20.64
610 1 -1.1104 9.50368 10.8383 26.3907
611 1 -1.1104 9.40498 5.1551 26.3162
612 1 -1.1104 9.39853 10.6444 23.5747
613 1 -1.1104 9.68912 5.00853 23.3751
614 2 2.2208 8.21308 9.23402 22.0897
615 1 -1.1104 9.50361 7.90999 26.429
616 2 2.2208 7.95315 12.2319 25.0612
617 2 2.2208 8.01429 6.56741 24.8638
618 2 2.2208 10.8286 6.56042 22.1096
619 2 2.2208 10.9125 12.1235 22.2579
620 1 -1.1104 12.2663 7.94425 23.6306
621 1 -1.1104 12.2998 7.89784 26.2827
622 1 -1.1104 12.3074 5.1141 23.6165
623 1 -1.1104 12.1556 10.7024 23.5475
624 2 2.2208 10.7651 9.15718 25.0008
625 1 -1.1104 12.2499 5.04006 26.4484
626 1 -1.1104 12.1776 10.6406 26.3915
627 1 -1.1104 9.46246 7.77751 23.5692
9222 2 2.2208 -0.342448 6.44489 16.6981
458 1 -1.1104 1.10994 13.6451 20.5971
484 1 -1.1104 3.99218 16.376 20.7589
460 1 -1.1104 1.05374 19.1241 20.7892
479 1 -1.1104 3.80024 19.1678 20.7568
470 1 -1.1104 1.06892 16.3477 20.7991
477 1 -1.1104 3.84371 13.4477 20.8307
647 2 2.2208 5.2251 17.7639 22.153
350 2 2.2208 2.39633 15.0001 22.1651
352 1 -1.1104 3.73638 19.1184 26.3479
353 2 2.2208 2.35247 20.5702 22.1631
354 1 -1.1104 3.77936 16.4849 23.4996
421 1 -1.1104 0.988434 16.3045 23.6396
512 1 -1.1104 3.71817 13.6077 26.2717
514 1 -1.1104 3.80803 16.4322 26.3189
541 2 2.2208 2.38606 17.7557 24.9173
634 1 -1.1104 3.76493 19.2302 23.5411
636 1 -1.1104 3.82149 13.6904 23.5895
638 1 -1.1104 0.930666 19.1941 26.5158
639 1 -1.1104 1.01669 16.365 26.4864
640 1 -1.1104 0.916543 13.6029 26.601
642 2 2.2208 5.20702 20.4865 25.0793
643 2 2.2208 5.24906 14.945 24.8803
645 1 -1.1104 1.03644 19.1761 23.6338
646 1 -1.1104 1.09481 13.5175 23.5975
464 1 -1.1104 6.60673 19.1794 20.8645
635 1 -1.1104 6.66296 13.6451 26.5208
462 1 -1.1104 6.6102 13.4811 20.821
493 1 -1.1104 12.1801 19.1802 20.8214
505 1 -1.1104 9.40884 19.1039 20.739
472 1 -1.1104 6.86658 16.2673 20.8882
547 1 -1.1104 12.3409 13.4687 23.8665
578 1 -1.1104 12.1861 13.6082 26.5825
632 1 -1.1104 9.54808 13.586 23.5592
498 1 -1.1104 12.2232 16.1968 20.8174
382 1 -1.1104 9.33847 19.2083 26.85
491 1 -1.1104 12.4314 13.4629 20.9511
503 1 -1.1104 9.57631 13.5223 20.8135
633 1 -1.1104 9.54117 19.1214 23.8118
606 1 -1.1104 12.3166 19.1525 26.4013
351 2 2.2208 8.21919 14.8728 22.2549
486 1 -1.1104 6.572 16.366 23.6352
608 2 2.2208 10.8649 14.947 25.0838
571 1 -1.1104 6.58405 19.2355 26.5205
381 1 -1.1104 9.45656 16.4147 26.5025
631 1 -1.1104 12.2936 16.3977 26.4139
510 1 -1.1104 9.48684 16.2979 20.9479
380 1 -1.1104 9.50412 16.37 23.7861
572 2 2.2208 8.00363 17.7059 25.0912
641 1 -1.1104 6.70705 19.1064 23.8099
650 2 2.2208 -0.420741 0.878879 16.532
9289 2 2.2208 -0.438476 20.7331 19.3032
9294 2 2.2208 13.6753 12.1221 25.0999
9219 2 2.2208 -0.334605 9.32386 13.7509
9147 2 2.2208 -0.332244 3.69567 19.4599
9290 2 2.2208 -0.285067 15.0999 19.272
9105 2 2.2208 -0.349496 20.6289 25.1033
9149 2 2.2208 13.6157 20.6005 22.1117
9441 2 2.2208 13.5978 17.6633 13.8022
9221 2 2.2208 -0.243497 9.35003 19.3931
314 2 2.2208 5.45405 -1.88941 13.7999
570 2 2.2208 8.06333 3.74103 27.6717
9146 2 2.2208 13.5866 9.31799 27.7836
651 2 2.2208 5.14746 23.4979 5.33889
652 2 2.2208 5.08465 29.0696 5.14103
653 1 -1.1104 0.837207 24.9008 0.97453
654 1 -1.1104 0.866294 24.7218 3.76737
655 1 -1.1104 0.630634 22.1498 1.33263
656 1 -1.1104 0.844919 27.7154 1.14209
657 2 2.2208 5.07331 26.1367 2.4141
658 1 -1.1104 1.1042 21.9198 3.97087
659 1 -1.1104 0.784383 27.5817 3.93551
660 1 -1.1104 3.8024 24.7117 1.2332
661 2 2.2208 2.35104 23.471 2.51009
662 2 2.2208 2.24496 29.1642 2.42367
663 1 -1.1104 3.75543 24.9377 3.97388
664 2 2.2208 2.37018 26.2704 5.17206
665 1 -1.1104 3.67257 22.1441 0.962617
666 1 -1.1104 3.61863 27.5586 1.06804
667 1 -1.1104 4.06519 22.1656 3.85978
668 1 -1.1104 3.65194 27.6706 3.72903
674 1 -1.1104 6.3458 22.06 1.05279
673 1 -1.1104 6.36776 24.8046 3.84277
677 1 -1.1104 6.37931 27.8009 3.74906
672 1 -1.1104 6.512 24.9483 0.962622
795 1 -1.1104 6.49452 27.6183 6.63978
1287 2 2.2208 7.82289 37.384 -0.279441
960 2 2.2208 13.5638 31.7987 5.13046
963 2 2.2208 13.5127 28.8559 7.99472
695 2 2.2208 13.593 28.9828 2.42037
151 3 0 10.3359 21.1153 3.0632
1507 1 -1.1104 3.7195 47.2632 6.38731
675 1 -1.1104 6.51811 27.6142 0.905358
676 1 -1.1104 7.24716 22.2237 4.00528
678 3 0 10.4088 23.2425 5.70099
679 2 2.2208 10.7266 29.045 5.16753
680 1 -1.1104 12.1577 24.7949 0.978452
681 1 -1.1104 12.4202 24.9286 3.71089
682 1 -1.1104 12.3684 21.9143 0.963188
683 1 -1.1104 12.2174 27.6055 1.0579
684 2 2.2208 10.686 26.2681 2.3615
685 1 -1.1104 12.3022 27.7902 3.94395
686 1 -1.1104 9.21825 24.9519 0.959081
687 2 2.2208 7.89059 23.6387 2.33285
688 2 2.2208 7.99848 29.1326 2.34813
689 1 -1.1104 9.23694 25.0331 3.72953
690 2 2.2208 7.87125 26.3003 5.06889
691 1 -1.1104 9.07886 22.3506 0.827126
692 1 -1.1104 9.47298 27.6436 1.03918
693 1 -1.1104 9.3822 27.7428 3.85068
825 1 -1.1104 12.1087 27.7485 6.54087
791 1 -1.1104 6.84603 24.5451 6.63926
942 1 -1.1104 9.3641 44.4007 12.5242
953 1 -1.1104 12.1008 38.8339 12.3265
967 2 2.2208 13.4205 40.2088 8.07905
966 2 2.2208 13.504 31.864 10.9859
941 1 -1.1104 9.13092 38.82 9.4249
699 2 2.2208 5.00659 34.6511 5.33809
700 1 -1.1104 0.956596 30.4686 0.975773
701 1 -1.1104 0.769858 36.1781 0.97816
703 1 -1.1104 0.782295 30.3824 3.94045
704 1 -1.1104 0.881467 36.1423 3.75595
706 1 -1.1104 0.725275 33.2131 1.09074
707 2 2.2208 4.93667 31.7986 2.33048
708 2 2.2208 4.92763 37.2572 2.54337
709 1 -1.1104 0.898969 33.3257 3.99276
711 1 -1.1104 3.75143 30.2169 0.968497
712 1 -1.1104 3.5029 35.93 1.05243
713 2 2.2208 2.17852 34.5212 2.36814
714 1 -1.1104 3.5664 30.3837 3.9219
715 1 -1.1104 3.65447 35.8415 3.90856
716 2 2.2208 2.3703 31.792 5.33799
717 2 2.2208 2.12558 37.425 5.25763
718 1 -1.1104 3.55071 33.0737 0.983189
719 1 -1.1104 3.64732 33.0536 3.77823
853 1 -1.1104 3.54462 36.0772 6.68621
705 1 -1.1104 6.41862 35.9798 3.93249
723 1 -1.1104 6.30027 33.1769 1.22225
722 1 -1.1104 6.49029 30.5176 3.7286
849 1 -1.1104 6.49607 36.0879 6.74328
984 1 -1.1104 1.15643 46.961 11.8885
694 2 2.2208 -0.384207 43.0275 13.5616
721 1 -1.1104 6.50393 30.4114 0.852077
1284 2 2.2208 13.4879 37.4103 -0.290352
710 1 -1.1104 6.50253 33.3717 4.04019
702 1 -1.1104 6.54325 35.9451 1.09195
724 2 2.2208 10.6884 34.678 5.29048
725 1 -1.1104 12.1826 30.3578 1.07259
726 1 -1.1104 11.9491 36.062 0.978771
727 1 -1.1104 12.1762 30.5677 3.69737
728 1 -1.1104 12.0261 36.1153 3.73758
729 1 -1.1104 12.0476 33.3641 0.977557
730 2 2.2208 10.6651 31.8926 2.35468
731 2 2.2208 10.6625 37.4586 2.5271
732 1 -1.1104 12.1107 33.4377 3.73013
733 1 -1.1104 9.35158 30.3489 0.999225
734 1 -1.1104 9.24124 36.0935 1.12855
735 2 2.2208 7.92909 34.6676 2.63686
736 1 -1.1104 9.22945 30.6113 3.73048
737 1 -1.1104 9.26186 35.9269 3.96785
738 2 2.2208 7.92336 31.8042 5.26379
739 2 2.2208 7.85185 37.4201 5.22453