ITEM: TIMESTEP
50000
ITEM: NUMBER OF ATOMS
17732
ITEM: BOX BOUNDS pp pp pp
-4.1720686190786715e-01 2.7757206861908752e+01
-4.9327098146107495e+00 3.3301270981460431e+02
-3.9600475694881315e-01 2.7736004756948930e+01
ITEM: ATOMS id type q x y z
1 2 2.2208 5.13261 0.701638 5.1362
2 1 -1.1104 0.938083 -3.61447 0.912231
6 1 -1.1104 0.876152 -3.43861 3.57971
10 1 -1.1104 1.14859 -0.683518 0.817237
12 2 2.2208 5.11413 -2.06371 2.27746
14 1 -1.1104 1.0741 -0.415994 3.59594
16 1 -1.1104 3.59708 -3.48745 0.845254
18 2 2.2208 2.44835 0.732234 2.26295
19 1 -1.1104 3.98479 -3.56418 3.63596
21 2 2.2208 2.2141 -1.97816 5.11343
23 1 -1.1104 3.7368 -0.690217 0.973308
24 1 -1.1104 3.71399 -0.688414 3.58232
3 1 -1.1104 1.04134 2.12827 0.724589
7 1 -1.1104 1.05727 2.17302 3.78457
17 1 -1.1104 3.92633 2.15161 1.10871
20 1 -1.1104 3.95843 2.30589 3.93258
22 2 2.2208 2.38453 3.51394 5.28032
13 2 2.2208 5.10059 3.61071 2.53386
174 1 -1.1104 3.84067 -0.712156 6.47257
172 1 -1.1104 3.91533 -3.55505 6.48756
173 1 -1.1104 3.68425 2.08471 6.58662
167 1 -1.1104 0.994154 2.13886 6.57276
11 1 -1.1104 6.59882 -0.796015 0.839623
8 1 -1.1104 6.73935 -3.33321 3.5529
4 1 -1.1104 6.7793 -3.61153 0.750971
50 2 2.2208 13.4461 -2.00616 5.17935
170 1 -1.1104 1.00513 -0.70635 6.46654
202 2 2.2208 2.34188 -4.93411 7.95408
168 1 -1.1104 6.72052 -3.48502 6.37505
53 2 2.2208 13.5476 -4.95136 2.23167
5 1 -1.1104 6.66514 2.09922 0.798417
15 1 -1.1104 6.60004 -0.623485 3.73138
31 2 2.2208 10.8184 0.727947 5.17759
32 1 -1.1104 12.2494 -3.4911 0.930587
34 1 -1.1104 12.1404 -3.46031 3.6355
36 1 -1.1104 12.1767 -0.781148 0.907605
37 2 2.2208 10.7323 -2.00887 2.19142
39 1 -1.1104 12.1065 -0.638344 3.75306
40 1 -1.1104 9.51677 -3.55237 0.871405
42 2 2.2208 7.91155 0.751988 2.14417
43 1 -1.1104 9.40606 -3.36813 3.71198
45 2 2.2208 8.08888 -2.04064 5.08652
47 1 -1.1104 9.31636 -0.499455 0.85997
48 1 -1.1104 9.33926 -0.600681 3.70887
9 1 -1.1104 6.56244 2.12534 3.5347
33 1 -1.1104 12.215 2.02538 1.11402
35 1 -1.1104 12.0552 2.17715 3.92697
41 1 -1.1104 9.32745 2.18342 0.898593
44 1 -1.1104 9.35806 2.21077 3.78815
46 2 2.2208 7.93201 3.3936 5.06348
210 1 -1.1104 9.38664 -0.630655 6.5704
209 1 -1.1104 9.42679 2.0842 6.50407
205 1 -1.1104 12.1348 -3.59079 6.60262
404 2 2.2208 5.26932 17.7091 -0.534194
38 2 2.2208 10.6781 3.52645 2.40969
232 2 2.2208 10.8306 -4.89503 10.8546
171 1 -1.1104 6.51238 -0.65381 6.4931
376 2 2.2208 8.09849 17.5057 13.8012
169 1 -1.1104 6.47259 2.16674 6.50456
206 1 -1.1104 12.1163 2.10405 6.70652
208 1 -1.1104 9.49315 -3.25558 6.66133
207 1 -1.1104 12.1932 -0.634144 6.48441
348 2 2.2208 5.15812 -2.17333 13.5109
321 1 -1.1104 9.41328 19.1203 12.2207
54 2 2.2208 5.0936 6.4025 5.12755
56 1 -1.1104 0.818131 7.80293 0.995023
58 1 -1.1104 0.840287 7.84692 3.77033
60 1 -1.1104 0.71864 5.012 1.11264
67 1 -1.1104 1.04926 4.84961 3.79716
71 1 -1.1104 3.64539 7.82156 1.15894
72 2 2.2208 2.21348 6.45765 2.44707
74 1 -1.1104 3.68396 7.74699 3.97703
76 1 -1.1104 3.60736 4.97435 1.16134
79 1 -1.1104 3.69187 5.03181 3.81072
55 2 2.2208 5.30419 11.9846 5.14376
61 1 -1.1104 1.12668 10.5839 1.21066
66 2 2.2208 5.00446 9.14277 2.49993
68 1 -1.1104 0.788588 10.6384 3.91721
73 2 2.2208 2.2611 12.0123 2.46705
75 2 2.2208 2.13118 9.1627 5.3533
77 1 -1.1104 3.887 10.6836 1.11368
80 1 -1.1104 3.77549 10.5104 4.13137
69 1 -1.1104 6.65969 4.96467 3.66785
236 1 -1.1104 0.868613 4.94524 6.65132
78 1 -1.1104 3.68517 10.5822 6.69764
238 1 -1.1104 3.78026 7.81921 6.63936
234 1 -1.1104 0.819236 7.61207 6.73765
62 1 -1.1104 0.727944 10.4105 6.76626
63 1 -1.1104 6.38776 5.07209 1.20985
57 1 -1.1104 6.43255 7.8439 0.885012
59 1 -1.1104 6.44834 7.88422 3.67034
239 1 -1.1104 3.68763 4.9289 6.6795
231 2 2.2208 7.96292 -4.83297 7.93748
329 1 -1.1104 12.3279 19.1908 12.2759
325 2 2.2208 10.7792 14.8749 8.01359
237 1 -1.1104 6.55301 4.83415 6.33625
84 2 2.2208 10.7376 6.19808 5.08669
86 1 -1.1104 12.0852 7.70603 0.992209
87 1 -1.1104 11.9708 7.69193 3.88066
88 1 -1.1104 12.0686 4.95317 1.06891
92 1 -1.1104 12.1793 4.86792 3.9304
94 1 -1.1104 9.33879 7.81765 1.03594
95 2 2.2208 7.90205 6.40911 2.39535
97 1 -1.1104 9.18329 7.63703 3.78669
99 1 -1.1104 9.33399 4.95377 0.941918
102 1 -1.1104 9.3012 5.05186 3.62011
64 1 -1.1104 6.52747 10.5377 1.03604
70 1 -1.1104 6.37282 10.6662 3.69756
85 2 2.2208 10.7688 11.8726 5.115
89 1 -1.1104 12.2624 10.6189 0.864659
91 2 2.2208 10.7324 9.2524 2.43448
93 1 -1.1104 12.2423 10.519 3.54993
96 2 2.2208 7.86957 12.0241 2.43966
98 2 2.2208 8.05039 9.16495 5.32106
100 1 -1.1104 9.42326 10.6134 1.16414
103 1 -1.1104 9.29596 10.4718 3.83602
235 1 -1.1104 6.48548 7.76205 6.53645
265 1 -1.1104 12.3228 7.74604 6.59924
101 1 -1.1104 9.39162 10.5025 6.50066
90 1 -1.1104 12.2123 10.5746 6.39407
266 1 -1.1104 12.1865 5.0448 6.55605
354 2 2.2208 13.573 -4.81428 13.4403
163 1 -1.1104 9.39712 16.0098 6.77807
107 1 -1.1104 0.806423 13.3379 1.17421
113 1 -1.1104 0.870425 13.3662 3.83274
123 1 -1.1104 3.68261 13.5733 0.918906
128 1 -1.1104 3.76449 13.2834 3.54641
130 2 2.2208 2.16757 14.7294 5.19987
106 2 2.2208 5.28883 17.6141 5.37525
109 1 -1.1104 0.908576 18.9946 0.800365
114 1 -1.1104 0.914914 18.984 3.69813
116 1 -1.1104 0.833352 16.1195 0.845387
119 2 2.2208 5.15756 14.8431 2.4648
120 2 2.2208 5.25984 20.3933 2.51257
121 1 -1.1104 1.07462 16.2334 3.73096
125 1 -1.1104 3.82181 19.19 0.983444
127 2 2.2208 2.35633 17.6601 2.4619
129 1 -1.1104 3.80621 18.7708 3.8611
131 2 2.2208 2.4919 20.281 5.26435
132 1 -1.1104 3.71252 16.5042 0.951107
134 1 -1.1104 3.83392 16.1007 3.80451
115 1 -1.1104 6.58696 13.4899 3.94744
110 1 -1.1104 6.6466 13.4679 1.01718
138 1 -1.1104 6.70025 19.0522 0.980155
112 1 -1.1104 6.65289 18.9285 6.84371
133 1 -1.1104 3.76935 16.221 6.54503
108 1 -1.1104 0.821757 13.4261 6.45265
302 1 -1.1104 0.923027 18.8499 6.65676
339 2 2.2208 13.6692 6.27576 8.04593
142 1 -1.1104 12.1835 13.2422 0.836315
146 1 -1.1104 12.0588 13.4326 3.71532
153 1 -1.1104 9.43778 13.4235 0.866876
158 1 -1.1104 9.21117 13.4715 3.66357
139 1 -1.1104 6.69484 19.0684 3.90501
140 1 -1.1104 6.57329 16.2775 1.04142
122 1 -1.1104 6.71367 16.3493 3.73256
150 2 2.2208 10.7538 14.8078 2.4207
141 2 2.2208 11.0006 17.6628 5.15146
144 1 -1.1104 12.3885 18.903 0.826029
147 1 -1.1104 12.2551 19.1588 3.72742
148 1 -1.1104 12.1683 16.1236 1.09325
151 2 2.2208 10.7698 20.3482 2.33655
152 1 -1.1104 12.2975 16.1508 3.74511
155 1 -1.1104 9.53974 19.0094 0.939456
157 2 2.2208 8.06843 17.6979 2.32218
159 1 -1.1104 9.51724 19.1796 3.71342
160 2 2.2208 8.02135 14.9059 5.17641
161 2 2.2208 8.091 20.5674 5.25086
162 1 -1.1104 9.37079 16.4149 1.07191
164 1 -1.1104 9.55744 16.2911 3.77739
143 1 -1.1104 12.0041 13.3156 6.54937
156 1 -1.1104 9.48991 18.5647 6.63052
154 1 -1.1104 9.29197 13.2157 6.47628
145 1 -1.1104 12.3355 18.8987 6.56833
316 2 2.2208 8.05932 20.3819 10.78
322 1 -1.1104 9.4661 13.3936 12.3666
331 2 2.2208 10.8209 17.6623 10.9609
315 1 -1.1104 9.52868 16.3092 12.3983
356 2 2.2208 10.7715 -1.93662 13.3734
335 2 2.2208 13.5513 9.1118 5.19777
104 2 2.2208 13.6245 11.8067 2.3787
166 1 -1.1104 0.90554 -3.51764 6.61111
175 2 2.2208 5.12672 0.723582 10.8688
176 1 -1.1104 0.84835 -3.61119 12.2174
180 1 -1.1104 0.927831 -3.65779 9.31978
184 1 -1.1104 0.895421 -0.801435 12.0631
186 2 2.2208 5.14932 -2.05732 7.83588
188 1 -1.1104 1.02274 -0.659123 9.19812
190 1 -1.1104 3.60975 -3.50287 12.2588
192 2 2.2208 2.45833 0.63856 7.98319
193 1 -1.1104 3.79122 -3.46608 9.27218
195 2 2.2208 2.45669 -2.13116 10.7524
197 1 -1.1104 3.7338 -0.745152 12.258
198 1 -1.1104 3.7519 -0.794843 9.28828
177 1 -1.1104 1.01866 1.97642 12.2755
181 1 -1.1104 0.968899 2.20401 9.41923
187 2 2.2208 5.20205 3.5636 7.89769
191 1 -1.1104 3.85504 1.9945 12.1973
194 1 -1.1104 3.80568 2.18919 9.27424
196 2 2.2208 2.32247 3.44503 10.8396
178 1 -1.1104 6.40858 -3.37783 11.9864
189 1 -1.1104 6.54644 -0.409991 9.34201
185 1 -1.1104 6.71618 -0.734325 12.1429
297 1 -1.1104 6.5459 13.3159 12.1391
49 2 2.2208 13.6158 0.701809 2.42046
399 2 2.2208 7.87947 9.18589 -0.395209
29 2 2.2208 5.20064 -4.84981 5.04565
324 2 2.2208 10.9079 20.2484 8.00246
179 1 -1.1104 6.47543 2.01712 12.1235
183 1 -1.1104 6.63278 2.24654 9.46702
330 1 -1.1104 12.2848 13.5371 12.1976
182 1 -1.1104 6.43342 -3.2626 9.27216
211 2 2.2208 10.7777 0.732804 10.6711
212 1 -1.1104 12.2985 -3.48275 12.1612
214 1 -1.1104 12.2337 -3.55659 9.49652
216 1 -1.1104 12.0828 -0.707597 12.0095
217 2 2.2208 10.8971 -2.10304 7.99727
219 1 -1.1104 12.314 -0.847761 9.23851
220 1 -1.1104 9.258 -3.6774 12.0079
222 2 2.2208 8.10705 0.812523 7.91557
223 1 -1.1104 9.28502 -3.56161 9.35213
225 2 2.2208 7.84234 -2.08485 10.8502
227 1 -1.1104 9.37132 -0.89293 11.8633
228 1 -1.1104 9.71751 -0.786011 9.48493
213 1 -1.1104 12.1733 2.17575 12.338
215 1 -1.1104 12.1304 2.12338 9.3432
221 1 -1.1104 9.32583 1.97539 12.1435
224 1 -1.1104 9.48895 2.11152 9.4444
226 2 2.2208 8.00977 3.57763 10.7682
218 2 2.2208 10.7035 3.452 8.04246
349 2 2.2208 2.38528 0.567994 13.6178
319 1 -1.1104 9.3291 13.4083 9.28374
355 2 2.2208 7.93913 0.700393 13.5816
165 2 2.2208 13.7249 17.7106 2.23155
311 2 2.2208 -0.383176 20.3224 7.99272
240 2 2.2208 5.26238 6.22004 10.819
242 1 -1.1104 0.991793 7.53818 12.3387
244 1 -1.1104 0.755814 7.6649 9.44361
246 1 -1.1104 0.893125 4.78442 12.2507
251 1 -1.1104 1.00203 4.80066 9.36378
255 1 -1.1104 3.80744 7.67239 12.281
256 2 2.2208 2.31169 6.27691 8.05911
258 1 -1.1104 3.72703 7.64078 9.60865
260 1 -1.1104 3.89669 4.84655 12.2889
262 1 -1.1104 3.7166 5.08655 9.45309
241 2 2.2208 5.16214 11.93 10.7958
247 1 -1.1104 1.06122 10.3909 12.2331
250 2 2.2208 5.16203 9.11172 8.17741
252 1 -1.1104 0.881329 10.4233 9.42938
257 2 2.2208 2.08812 12.01 8.00781
259 2 2.2208 2.44903 8.97043 10.8423
261 1 -1.1104 3.79412 10.5675 12.2592
263 1 -1.1104 3.78918 10.3931 9.52611
253 1 -1.1104 6.68508 4.94213 9.30334
249 1 -1.1104 6.63593 10.5283 12.347
65 1 -1.1104 6.87602 10.5654 6.67257
243 1 -1.1104 6.6337 7.86187 12.2342
245 1 -1.1104 6.68024 7.64291 9.37249
327 1 -1.1104 12.4511 19.0375 9.49245
357 2 2.2208 10.7594 3.55109 13.7866
370 2 2.2208 13.551 0.901251 13.5331
288 1 -1.1104 6.70821 18.8446 9.56588
269 1 -1.1104 9.44628 4.85039 6.50668
317 2 2.2208 8.0104 14.9406 10.9105
328 1 -1.1104 12.3175 13.3073 9.36273
248 1 -1.1104 6.70161 4.96065 12.273
267 1 -1.1104 9.59551 7.68394 6.59799
268 1 -1.1104 9.50812 4.87611 9.5655
271 1 -1.1104 9.42218 4.91506 12.396
273 1 -1.1104 9.36589 7.59841 9.41053
275 2 2.2208 8.13173 6.24147 7.88042
276 2 2.2208 10.8036 6.28538 10.858
278 1 -1.1104 12.0675 7.74397 12.4023
279 1 -1.1104 12.2956 7.59496 9.50905
280 1 -1.1104 12.266 5.05987 12.1582
283 1 -1.1104 12.2189 4.88354 9.43867
285 1 -1.1104 9.49131 7.89199 12.0244
254 1 -1.1104 6.53875 10.4639 9.38173
264 1 -1.1104 9.47933 10.4265 9.23747
270 1 -1.1104 9.54346 10.6232 12.1188
272 2 2.2208 8.00792 9.13011 10.7674
274 2 2.2208 8.15233 12.0284 7.92525
277 2 2.2208 10.8664 12.0521 10.7663
281 1 -1.1104 12.4061 10.6951 12.3461
282 2 2.2208 10.8637 9.13344 7.98779
284 1 -1.1104 12.2807 10.4733 9.22655
323 1 -1.1104 12.3237 16.1916 9.54282
363 2 2.2208 8.05643 6.21611 13.8121
333 2 2.2208 13.7621 14.8978 10.9785
296 1 -1.1104 6.59931 18.8629 12.2545
369 2 2.2208 5.25941 20.2531 13.7693
351 2 2.2208 -0.41245 14.7647 13.6747
306 1 -1.1104 6.73351 16.1289 12.2534
126 1 -1.1104 3.73559 19.0958 6.8391
149 1 -1.1104 12.1139 16.2276 6.68269
314 1 -1.1104 9.43138 16.0757 9.60434
289 1 -1.1104 6.7108 16.0299 9.44524
117 1 -1.1104 0.790476 16.0873 6.46322
124 1 -1.1104 3.39813 13.4577 6.41592
118 1 -1.1104 6.66107 16.0937 6.64975
305 1 -1.1104 3.72844 13.3437 9.32611
299 1 -1.1104 0.998476 13.144 12.2093
294 1 -1.1104 0.923163 13.414 9.38908
287 1 -1.1104 3.79881 13.374 12.2741
309 2 2.2208 2.4936 20.5035 10.884
308 1 -1.1104 3.90402 16.1995 12.2237
307 1 -1.1104 1.10521 15.9271 12.3598
304 1 -1.1104 4.00949 15.9994 9.47298
303 2 2.2208 2.31806 17.581 8.03908
301 1 -1.1104 3.83246 18.8969 9.55133
300 2 2.2208 5.37766 17.5586 10.8396
298 1 -1.1104 1.00279 18.8794 12.1537
295 2 2.2208 5.13142 14.6859 7.91233
310 2 2.2208 2.46363 14.7234 10.7714
293 2 2.2208 5.03916 20.4773 8.15552
292 1 -1.1104 1.03775 16.1478 9.33344
291 1 -1.1104 1.1123 19.0708 9.42249
286 1 -1.1104 3.92681 19.1283 12.3006
290 1 -1.1104 6.65444 13.1288 9.37943
111 1 -1.1104 6.35668 13.2876 6.66386
326 1 -1.1104 12.3495 16.4007 12.3774
320 2 2.2208 7.9734 17.5089 8.08977
318 1 -1.1104 9.58308 18.6923 9.39767
371 2 2.2208 5.25889 14.7193 13.7117
230 2 2.2208 13.6742 -2.05042 10.7053
337 2 2.2208 13.4762 14.8251 5.07949
364 2 2.2208 10.9127 9.28932 13.5923
332 2 2.2208 13.7771 17.6401 8.02704
393 2 2.2208 5.15513 6.36728 -0.336649
389 2 2.2208 7.92381 3.58125 -0.508683
380 2 2.2208 13.708 17.6861 13.6613
381 2 2.2208 5.17633 0.689512 -0.481308
361 2 2.2208 2.32371 11.8533 13.7388
334 2 2.2208 13.4769 3.47423 5.19837
405 2 2.2208 2.34697 20.2665 -0.41126
340 2 2.2208 13.4787 11.9257 7.81892
105 2 2.2208 13.563 6.33405 2.36979
338 2 2.2208 13.547 3.46406 10.6707
26 2 2.2208 -0.363395 0.720786 5.07552
25 2 2.2208 -0.38479 -1.98831 2.27895
373 2 2.2208 10.9329 14.7801 13.4645
398 2 2.2208 10.7059 6.40257 -0.282742
368 2 2.2208 2.6002 17.5422 13.6628
395 2 2.2208 5.05121 12.1109 -0.325438
353 2 2.2208 8.02211 -5.07165 13.3876
406 2 2.2208 5.27503 0.582966 16.4349
407 1 -1.1104 0.836349 -3.53347 18.0559
411 1 -1.1104 0.935196 -3.7049 15.1719
419 1 -1.1104 0.930624 -0.863246 17.7688
421 2 2.2208 5.1915 -2.14671 19.2643
423 1 -1.1104 0.822773 -0.832615 15.0358
427 1 -1.1104 3.6726 -3.40208 17.9596
429 2 2.2208 2.30402 0.647259 19.2991
430 1 -1.1104 3.7178 -3.65801 15.1307
434 2 2.2208 2.44758 -2.12367 16.4101
436 1 -1.1104 3.75152 -0.604764 17.7809
437 1 -1.1104 3.82982 -0.726637 14.9518
408 1 -1.1104 0.740748 1.90373 18.1448
413 1 -1.1104 0.968853 1.78606 15.1123
422 2 2.2208 5.14959 3.43397 19.3879
428 1 -1.1104 3.58695 2.03813 18.0351
432 1 -1.1104 3.65267 1.99175 15.0456
435 2 2.2208 2.397 3.3371 16.5386
415 1 -1.1104 6.6256 -3.66401 14.7826
409 1 -1.1104 6.58106 -3.55945 17.8088
425 1 -1.1104 6.67041 -0.812475 14.9124
431 1 -1.1104 3.90254 -3.57458 20.7814
724 2 2.2208 -0.432225 20.412 24.9939
410 1 -1.1104 6.62068 1.94044 17.6755
438 1 -1.1104 3.81692 -0.686235 20.6418
418 1 -1.1104 6.60534 2.09479 20.7208
426 1 -1.1104 6.61256 -0.654359 20.7179
417 1 -1.1104 6.66605 2.18973 15.0345
440 2 2.2208 5.29613 -5.02047 16.3158
420 1 -1.1104 6.58366 -0.813911 17.7019
449 2 2.2208 10.6602 0.670664 16.3708
450 1 -1.1104 12.1482 -3.4563 17.7622
452 1 -1.1104 11.9474 -3.46442 14.9737
456 1 -1.1104 12.2539 -0.693212 17.7044
457 2 2.2208 10.8473 -2.07355 19.1551
459 1 -1.1104 12.0837 -0.505595 14.8624
461 1 -1.1104 9.23661 -3.40924 17.8035
463 2 2.2208 8.06961 0.689267 19.3619
464 1 -1.1104 9.27659 -3.50601 15.0324
468 2 2.2208 8.07745 -2.18348 16.3405
470 1 -1.1104 9.3187 -0.581286 17.8605
471 1 -1.1104 9.42604 -0.591371 14.9897
451 1 -1.1104 12.031 2.16276 17.8515
454 1 -1.1104 12.2056 2.28077 15.0988
458 2 2.2208 10.7854 3.56183 19.2661
462 1 -1.1104 9.36158 2.17152 17.7234
466 1 -1.1104 9.33596 2.12496 14.9626
469 2 2.2208 7.93649 3.48728 16.5145
372 2 2.2208 10.8232 20.5878 13.4966
455 1 -1.1104 12.2048 2.23177 20.4843
472 1 -1.1104 9.61775 -0.752732 20.6652
453 1 -1.1104 12.3342 -3.58028 20.4564
467 1 -1.1104 9.36929 2.12493 20.7112
460 1 -1.1104 12.3055 -0.811024 20.5802
465 1 -1.1104 9.60129 -3.5121 20.5461
639 2 2.2208 5.22393 -5.0957 22.1093
482 2 2.2208 4.97592 6.23404 16.6416
484 1 -1.1104 1.06371 7.62251 17.893
486 1 -1.1104 0.850197 7.60607 15.0261
490 1 -1.1104 0.874589 4.56336 18.0919
495 1 -1.1104 1.06598 4.85762 15.1815
503 1 -1.1104 3.91692 7.69538 18.2322
504 2 2.2208 2.40757 6.26835 19.2273
506 1 -1.1104 3.57448 7.35712 15.2258
509 1 -1.1104 3.55954 4.9769 17.8812
511 1 -1.1104 3.66076 4.68335 14.9832
483 2 2.2208 5.24489 11.878 16.2907
491 1 -1.1104 1.09869 10.4503 17.7012
494 2 2.2208 5.22604 9.27301 19.2607
497 1 -1.1104 1.05001 10.5849 15.0387
505 2 2.2208 2.47368 11.914 19.3341
508 2 2.2208 2.4359 9.06489 16.5147
510 1 -1.1104 3.8925 10.5645 17.8734
513 1 -1.1104 3.91512 10.1687 15.1964
487 1 -1.1104 1.02399 7.73935 20.5505
499 1 -1.1104 6.52909 4.94471 14.8971
485 1 -1.1104 6.70498 7.776 17.7867
496 1 -1.1104 0.90754 5.1749 20.8053
512 1 -1.1104 3.82711 4.79106 20.5556
488 1 -1.1104 6.71261 7.75466 15.0271
501 1 -1.1104 6.69954 10.5472 15.175
493 1 -1.1104 6.79056 10.6586 17.8934
379 2 2.2208 8.05028 20.4746 27.6652
514 1 -1.1104 3.799 10.367 20.7266
507 1 -1.1104 3.85046 7.53011 21.0608
498 1 -1.1104 0.942011 10.5524 20.6556
500 1 -1.1104 6.57898 4.89125 20.5857
492 1 -1.1104 6.35707 4.88783 17.9372
518 2 2.2208 10.8988 6.38781 16.5345
520 1 -1.1104 12.1419 7.77608 17.9972
521 1 -1.1104 12.3743 7.81351 15.1712
523 1 -1.1104 12.2018 5.02449 17.7998
526 1 -1.1104 12.2056 5.01122 15.1605
530 1 -1.1104 9.42867 7.72495 17.871
531 2 2.2208 8.07783 6.38234 19.2443
533 1 -1.1104 9.54718 7.65398 15.1571
536 1 -1.1104 9.35986 4.82809 17.9427
538 1 -1.1104 9.35645 4.89996 15.2119
519 2 2.2208 10.9369 11.9636 16.5509
524 1 -1.1104 12.2576 10.6547 17.8768
525 2 2.2208 10.7374 9.25434 19.2153
528 1 -1.1104 12.4119 10.6398 15.2197
532 2 2.2208 7.95985 12.1171 19.3301
535 2 2.2208 8.06427 9.12876 16.491
537 1 -1.1104 9.34164 10.5737 17.8823
540 1 -1.1104 9.56847 10.5651 14.9767
522 1 -1.1104 12.0769 7.69088 20.7524
539 1 -1.1104 9.33965 4.91755 20.7899
489 1 -1.1104 6.57998 7.73267 20.4229
534 1 -1.1104 9.28249 7.67584 20.6983
527 1 -1.1104 12.1458 4.9156 20.5997
529 1 -1.1104 12.1299 10.5904 20.5583
541 1 -1.1104 9.36602 10.539 20.6487
578 2 2.2208 13.4616 0.859809 19.1814
474 2 2.2208 10.8349 -4.834 16.4183
385 2 2.2208 5.14029 -4.92644 27.5196
723 2 2.2208 -0.426979 17.7054 22.1835
585 1 -1.1104 12.3358 13.3615 20.7228
546 1 -1.1104 1.00274 13.4429 17.9622
550 1 -1.1104 1.07212 13.3787 15.1195
566 1 -1.1104 3.83226 13.1379 18.056
569 1 -1.1104 3.80649 13.2322 15.1448
573 2 2.2208 2.40082 14.7513 16.5354
545 2 2.2208 5.20258 17.3425 16.5268
547 1 -1.1104 1.07528 19.0028 17.6226
552 1 -1.1104 1.05415 19.0728 14.9011
558 1 -1.1104 0.896419 16.1937 17.8862
560 2 2.2208 5.22706 14.6431 19.3965
561 2 2.2208 5.2388 20.4804 19.3521
562 1 -1.1104 1.10865 16.0848 15.1201
567 1 -1.1104 3.74251 18.8695 17.6815
568 2 2.2208 2.36401 17.5046 19.165
571 1 -1.1104 3.88876 18.8834 15.0826
574 2 2.2208 2.45418 20.4005 16.46
575 1 -1.1104 3.93728 16.0721 18.0251
576 1 -1.1104 3.83316 15.983 15.195
559 1 -1.1104 6.68759 16.0867 17.9005
565 1 -1.1104 6.62436 16.2363 20.8628
577 1 -1.1104 3.75124 16.2174 20.6631
549 1 -1.1104 6.78008 19.154 18.0067
572 1 -1.1104 3.65231 19.237 20.5243
563 1 -1.1104 1.07894 15.9853 20.5543
638 2 2.2208 10.8024 14.8691 24.8818
556 1 -1.1104 6.5862 18.7549 15.1027
548 1 -1.1104 6.61518 13.4447 17.8226
564 1 -1.1104 6.89047 15.9602 15.1103
554 1 -1.1104 6.60208 13.3068 14.7815
582 1 -1.1104 12.4468 13.327 17.9016
584 1 -1.1104 12.4461 13.4408 14.9534
593 1 -1.1104 9.43527 13.3377 17.837
596 1 -1.1104 9.57323 13.2441 14.9783
581 2 2.2208 10.8617 17.5631 16.5312
583 1 -1.1104 12.3536 18.9953 17.8496
586 1 -1.1104 12.226 19.0259 15.0303
588 1 -1.1104 12.205 16.0467 17.7943
589 2 2.2208 10.9407 14.8735 19.3207
590 2 2.2208 10.7345 20.4363 19.1071
591 1 -1.1104 12.2807 16.2862 14.9592
594 1 -1.1104 9.57484 18.9397 18.0531
595 2 2.2208 8.06332 17.3771 19.3877
598 1 -1.1104 9.36344 19.0278 15.2634
600 2 2.2208 8.2087 14.6957 16.4251
601 2 2.2208 7.9902 20.6092 16.5869
602 1 -1.1104 9.51784 16.2339 17.9075
603 1 -1.1104 9.72102 16.1509 15.0195
587 1 -1.1104 12.3337 18.9726 20.5921
557 1 -1.1104 6.54225 18.9732 20.6635
392 2 2.2208 13.6167 3.52316 27.8305
604 1 -1.1104 9.45941 16.1136 20.6088
592 1 -1.1104 12.239 16.2434 20.6497
475 2 2.2208 8.10521 -4.91994 19.1685
671 2 2.2208 13.5989 -2.178 21.8623
424 1 -1.1104 1.16417 -0.957993 20.7282
433 1 -1.1104 3.68702 2.10593 20.6187
416 1 -1.1104 6.80177 -3.50635 20.5024
579 2 2.2208 13.5461 3.5561 16.4756
358 2 2.2208 -0.41832 9.11373 13.7784
412 1 -1.1104 1.2043 -3.56911 20.7174
609 2 2.2208 5.24895 0.630767 22.0711
610 1 -1.1104 1.04451 -3.53515 23.521
614 1 -1.1104 0.916351 -3.47968 26.3495
618 1 -1.1104 1.0387 -0.75255 23.5386
620 2 2.2208 5.15086 -2.23404 24.8384
622 1 -1.1104 1.15001 -0.546777 26.2008
624 1 -1.1104 3.85442 -3.6683 23.517
626 2 2.2208 2.39118 0.826526 24.8764
627 1 -1.1104 3.90725 -3.66589 26.2889
629 2 2.2208 2.49399 -2.27534 22.1053
631 1 -1.1104 3.68598 -0.827915 23.4424
632 1 -1.1104 3.76223 -0.602023 26.4407
414 1 -1.1104 0.947683 2.19459 20.7881
611 1 -1.1104 1.06671 2.15281 23.4631
615 1 -1.1104 0.814575 2.17023 26.1383
621 2 2.2208 5.08035 3.56346 24.9351
625 1 -1.1104 3.84139 2.09843 23.5101
628 1 -1.1104 3.77583 2.25299 26.3962
630 2 2.2208 2.43255 3.50394 22.084
617 1 -1.1104 6.34187 2.42309 26.2842
616 1 -1.1104 6.68114 -3.51262 26.0921
481 2 2.2208 -0.398559 6.32282 16.491
383 2 2.2208 2.4743 3.68098 27.7987
516 2 2.2208 -0.444267 12.057 16.4549
374 2 2.2208 13.4555 14.6677 27.751
479 2 2.2208 13.5875 17.6655 19.1915
517 2 2.2208 13.6715 11.9566 19.4462
623 1 -1.1104 6.42865 -0.75607 26.1822
612 1 -1.1104 6.69919 -3.67126 23.2976
619 1 -1.1104 6.4205 -0.787105 23.2969
382 2 2.2208 2.38674 -2.03197 27.6753
448 2 2.2208 -0.320207 14.7076 19.3585
645 2 2.2208 10.813 0.752076 22.0079
646 1 -1.1104 12.1403 -3.62497 23.3398
648 1 -1.1104 12.1975 -3.63941 26.2729
650 1 -1.1104 12.114 -0.736539 23.2504
651 2 2.2208 10.9404 -2.22139 24.778
653 1 -1.1104 12.2692 -0.811608 26.0933
654 1 -1.1104 9.52637 -3.36647 23.2226
656 2 2.2208 7.98282 0.624829 24.8732
657 1 -1.1104 9.55748 -3.62461 26.2036
659 2 2.2208 7.9613 -2.06022 21.9101
661 1 -1.1104 9.21132 -0.664164 23.4247
662 1 -1.1104 9.399 -0.903818 26.266
613 1 -1.1104 6.66647 2.10214 23.6428
647 1 -1.1104 12.1452 2.20118 23.4607
649 1 -1.1104 12.1004 2.08891 26.2544
652 2 2.2208 10.8826 3.61168 24.9249
655 1 -1.1104 9.55532 1.98867 23.3778
658 1 -1.1104 9.08504 2.05538 26.1822
660 2 2.2208 8.03905 3.44889 22.2103
477 2 2.2208 13.5575 -2.03356 16.1208
673 1 -1.1104 9.3086 13.4402 26.1925
447 2 2.2208 -0.370469 17.7065 16.3493
400 2 2.2208 10.6061 11.9428 27.7684
674 2 2.2208 5.32492 6.23355 22.1929
676 1 -1.1104 0.963854 7.69449 23.3787
678 1 -1.1104 0.941846 7.58428 26.1223
680 1 -1.1104 1.05987 4.81411 23.5508
685 1 -1.1104 1.09365 4.90325 26.4185
689 1 -1.1104 3.81647 7.74362 23.8711
690 2 2.2208 2.48704 6.22682 24.9498
692 1 -1.1104 3.69322 7.49582 26.4958
694 1 -1.1104 3.77067 4.88005 23.4707
696 1 -1.1104 3.92676 4.96654 26.2596
675 2 2.2208 5.12366 11.9927 22.0944
681 1 -1.1104 0.960905 10.5497 23.4813
684 2 2.2208 5.22641 9.19637 24.9287
686 1 -1.1104 0.97959 10.5085 26.3343
691 2 2.2208 2.47789 11.8831 24.9686
693 2 2.2208 2.46469 8.83623 22.1746
695 1 -1.1104 3.8677 10.4906 23.5977
697 1 -1.1104 3.7459 10.4412 26.5176
502 1 -1.1104 6.49033 10.629 20.706
682 1 -1.1104 6.81212 4.91707 23.6057
687 1 -1.1104 6.78761 5.07432 26.4606
688 1 -1.1104 6.49439 10.8241 26.298
683 1 -1.1104 6.66498 10.4639 23.4113
476 2 2.2208 -0.257248 20.2558 19.2831
726 2 2.2208 13.5742 11.8487 24.8366
443 2 2.2208 -0.395313 -2.1039 19.2842
359 2 2.2208 2.41009 6.08963 13.5859
677 1 -1.1104 6.64101 7.80049 23.3036
679 1 -1.1104 6.6329 7.94245 26.1407
706 1 -1.1104 9.5318 5.09692 26.2185
708 1 -1.1104 9.33356 4.8403 23.491
710 1 -1.1104 9.46898 7.7997 26.331
712 2 2.2208 7.98997 6.35128 24.9521
713 2 2.2208 10.6136 6.41606 22.092
715 1 -1.1104 12.286 7.77372 23.6492
716 1 -1.1104 12.1174 7.65224 26.4512
717 1 -1.1104 12.3252 4.86269 23.512
720 1 -1.1104 12.3349 4.854 26.4002
722 1 -1.1104 9.33154 7.61464 23.6019
705 1 -1.1104 9.13681 10.5196 26.317
707 1 -1.1104 9.63639 10.5026 23.5589
709 2 2.2208 8.03163 9.20982 22.0699
711 2 2.2208 7.9167 12.1012 24.8193
714 2 2.2208 10.909 11.8815 22.2514
718 1 -1.1104 12.4201 10.4719 23.4555
719 2 2.2208 10.9362 9.03773 25.0099
721 1 -1.1104 12.0691 10.4319 26.3352
388 2 2.2208 8.06009 -2.26131 27.5544
555 1 -1.1104 6.63595 13.4687 20.6071
728 2 2.2208 13.7332 6.37699 25.0653
747 1 -1.1104 6.60321 16.014 23.5406
672 2 2.2208 13.5186 0.685074 24.8784
700 2 2.2208 7.81814 20.3664 22.1647
551 1 -1.1104 1.07721 13.4521 20.7608
553 1 -1.1104 1.20004 18.8194 20.5967
732 1 -1.1104 6.55612 16.2704 26.5162
670 1 -1.1104 6.50851 19.1466 26.3747
636 1 -1.1104 12.1959 16.0765 23.6203
570 1 -1.1104 3.87486 13.303 20.7612
739 1 -1.1104 6.73235 13.3809 23.3697
746 1 -1.1104 3.66277 13.3657 26.3539
731 1 -1.1104 3.76506 13.3298 23.5548
735 1 -1.1104 1.03533 13.3098 26.3288
741 1 -1.1104 1.00615 13.4279 23.4761
743 1 -1.1104 3.61638 19.1425 26.3277
748 1 -1.1104 0.904286 16.2196 23.5594
745 1 -1.1104 3.76235 16.3068 26.345
744 2 2.2208 2.42592 17.6596 24.8778
750 2 2.2208 2.29416 20.4865 21.988
749 1 -1.1104 3.71081 16.3142 23.4755
727 2 2.2208 2.45875 14.8551 22.1386
729 1 -1.1104 3.82117 18.912 23.2291
733 1 -1.1104 0.903569 18.8485 26.2406
734 1 -1.1104 1.00253 16.1965 26.2461
737 2 2.2208 5.18951 20.4475 24.9343
738 2 2.2208 5.11138 14.7345 24.7987
740 1 -1.1104 0.980252 19.0066 23.4555
742 2 2.2208 5.0589 17.6439 21.8848
736 1 -1.1104 6.64836 18.8687 23.5257
634 1 -1.1104 11.991 13.4073 26.0956
665 1 -1.1104 9.35598 18.9979 23.5667
664 1 -1.1104 9.42803 13.3196 23.4183
663 1 -1.1104 12.2546 16.2208 26.3218
608 1 -1.1104 12.3874 13.2789 23.4196
730 1 -1.1104 6.43356 13.5161 26.0337
698 1 -1.1104 9.4547 18.899 26.3553
667 2 2.2208 7.97436 17.6776 24.9028
704 1 -1.1104 9.473 16.3016 26.2567
635 1 -1.1104 12.2585 18.9821 26.1705
597 1 -1.1104 9.55312 13.4703 20.5296
607 2 2.2208 10.8284 17.5964 21.9773
599 1 -1.1104 9.27646 19.1114 20.866
699 2 2.2208 8.25699 14.6914 22.1187
641 2 2.2208 10.87 20.4203 24.8489
633 1 -1.1104 12.2302 19.0404 23.3415
701 1 -1.1104 9.40236 16.0936 23.41
725 2 2.2208 -0.488169 14.8637 24.7409
542 2 2.2208 13.6001 6.35142 19.3142
391 2 2.2208 13.5599 -2.26212 27.6996
544 2 2.2208 -0.546631 3.44893 19.4169
403 2 2.2208 2.37099 14.8875 27.8108
644 2 2.2208 -0.291508 3.65326 24.8985
365 2 2.2208 8.05369 12.0265 13.4781
703 2 2.2208 -0.321849 11.9172 22.1731
366 2 2.2208 13.6981 6.43063 13.4869
387 2 2.2208 10.8075 0.722242 27.74
377 2 2.2208 7.90993 14.7759 27.6392
394 2 2.2208 2.3051 9.27116 27.7205
378 2 2.2208 10.8953 17.6706 27.4632
352 2 2.2208 5.12149 3.50907 13.609
350 2 2.2208 -0.423879 20.4205 13.7349
360 2 2.2208 5.25739 9.14236 13.5659
751 2 2.2208 5.21177 23.2836 5.4975
753 1 -1.1104 0.896546 24.668 0.91612
754 1 -1.1104 0.987766 24.6253 3.75552
755 1 -1.1104 0.774532 21.9057 1.07215
757 2 2.2208 5.12286 25.9991 2.46865
758 1 -1.1104 1.14692 21.7062 3.88973
760 1 -1.1104 3.8608 24.5497 1.2464
761 2 2.2208 2.28223 23.1837 2.57525
763 1 -1.1104 3.63287 24.3148 4.1679
764 2 2.2208 2.45601 25.9914 5.27159
765 1 -1.1104 3.55154 21.8531 0.998456
767 1 -1.1104 3.86106 21.6564 3.79809
768 1 -1.1104 3.71686 27.2101 3.85345
756 1 -1.1104 0.877766 27.5173 1.12667
759 1 -1.1104 1.09729 27.3248 3.8732
766 1 -1.1104 3.7456 27.3011 1.05412
752 2 2.2208 5.04823 28.7577 5.24519
762 2 2.2208 2.39363 28.8031 2.44911
899 1 -1.1104 3.8755 22.0568 6.7929
898 1 -1.1104 3.82261 24.816 6.78069
1677 1 -1.1104 1.18562 47.1931 12.317
894 1 -1.1104 1.23361 21.8444 6.71624
895 1 -1.1104 0.930378 27.4143 6.67967
896 1 -1.1104 6.50822 21.6747 6.96372
773 1 -1.1104 6.51931 24.6657 3.81561
1107 2 2.2208 2.39778 45.7026 13.6509
1126 2 2.2208 13.4718 26.0425 -0.489413
844 2 2.2208 13.8316 34.3138 2.42694
1501 1 -1.1104 3.78935 47.0529 3.81649
1694 1 -1.1104 3.65606 46.8035 9.22696
822 2 2.2208 -0.393327 31.492 2.37135
775 1 -1.1104 6.58125 27.4879 1.08434
777 1 -1.1104 6.52848 27.3088 3.96292
776 1 -1.1104 6.60098 21.7731 4.106
772 1 -1.1104 6.55194 24.5182 1.03802
774 1 -1.1104 6.5336 21.7235 0.949858
778 2 2.2208 10.8624 23.1815 5.22781
780 1 -1.1104 12.13 24.675 1.06466
781 1 -1.1104 12.3194 24.7506 3.87275
782 1 -1.1104 12.1888 21.8058 1.23416
784 2 2.2208 10.8523 25.8594 2.54687
785 1 -1.1104 12.2494 22.0107 3.82394
787 1 -1.1104 9.2602 24.5287 1.14799
788 2 2.2208 7.90662 23.2538 2.53728
790 1 -1.1104 9.41575 24.6071 4.1194
791 2 2.2208 8.05151 25.9736 5.32422
792 1 -1.1104 9.37529 21.8539 0.970058
793 1 -1.1104 9.38315 27.5218 0.949773
794 1 -1.1104 9.41467 21.9097 3.72969
783 1 -1.1104 12.2568 27.4221 1.08138
795 1 -1.1104 9.39676 27.2737 3.79913
786 1 -1.1104 12.314 27.3234 3.6103
779 2 2.2208 10.8672 28.627 5.20394
789 2 2.2208 8.01472 28.876 2.64287
897 1 -1.1104 6.65554 27.46 6.66213
925 1 -1.1104 12.2701 24.4779 6.66409
926 1 -1.1104 12.0965 21.7665 6.64537
1127 2 2.2208 10.7538 29.035 -0.407635
929 1 -1.1104 9.27231 21.6673 6.74452
928 1 -1.1104 9.60553 24.5439 6.90993
930 1 -1.1104 9.4403 27.2966 6.5643
1680 1 -1.1104 0.997402 47.0308 9.42258
1053 1 -1.1104 12.1557 38.5089 9.45079
1079 2 2.2208 -0.449573 31.6399 8.08749
800 1 -1.1104 1.09497 30.1905 0.958388
803 1 -1.1104 1.07007 30.2811 3.77672
806 1 -1.1104 1.18121 33.0783 0.867806
807 2 2.2208 5.17362 31.507 2.33238
809 1 -1.1104 0.946187 32.9224 3.73503
811 1 -1.1104 4.00877 29.8484 1.07082
814 1 -1.1104 3.78761 30.0819 3.78019
816 2 2.2208 2.37863 31.6287 5.17551
818 1 -1.1104 3.90754 32.5516 0.886604
819 1 -1.1104 3.79946 33.0912 3.76255
799 2 2.2208 5.13781 34.476 5.20322
801 1 -1.1104 1.32342 35.8603 0.982199
804 1 -1.1104 1.19679 35.5738 3.85835
808 2 2.2208 5.22141 37.2594 2.51399
812 1 -1.1104 3.99991 35.5611 0.955843
813 2 2.2208 2.50629 34.2839 2.3678
815 1 -1.1104 3.85495 35.8567 3.89058
817 2 2.2208 2.42864 37.158 5.30298
1077 2 2.2208 13.7815 37.1862 10.8956
1477 1 -1.1104 0.762123 47.1174 0.893817
824 1 -1.1104 6.462 29.9117 3.9512
1718 3 0 9.51256 47.04 11.0919
1067 2 2.2208 13.6131 37.2277 5.26264
1110 2 2.2208 8.07116 39.8711 13.6622
890 2 2.2208 13.7428 45.5295 2.41868
1105 2 2.2208 2.51797 40.0419 13.7287
954 1 -1.1104 6.4917 32.8959 6.44411
802 1 -1.1104 6.85476 35.7629 0.919451
810 1 -1.1104 6.49809 32.9978 3.81339
823 1 -1.1104 6.65949 30.1949 1.03562
825 1 -1.1104 6.64533 32.9127 0.937975
827 1 -1.1104 12.1274 30.4233 0.955262
829 1 -1.1104 12.242 30.1081 3.62711
831 1 -1.1104 12.0601 33.0107 1.044
832 2 2.2208 10.7172 31.6161 2.46465