ITEM: TIMESTEP
20000
ITEM: NUMBER OF ATOMS
17732
ITEM: BOX BOUNDS pp pp pp
-4.1217701565507348e-01 2.7752177015655668e+01
-4.8812627921125866e+00 3.3296126279210898e+02
-4.0183366464224218e-01 2.7741833664642169e+01
ITEM: ATOMS id type q x y z
1 2 2.2208 5.29643 0.86694 5.29367
2 1 -1.1104 1.08419 -3.39094 1.10293
6 1 -1.1104 1.06659 -3.39716 3.80771
10 1 -1.1104 1.20335 -0.514145 1.05162
12 2 2.2208 5.3332 -1.9231 2.55111
14 1 -1.1104 1.16561 -0.62712 3.8831
16 1 -1.1104 3.99418 -3.42677 1.20748
18 2 2.2208 2.41901 0.877151 2.2785
19 1 -1.1104 3.9475 -3.3334 3.86687
21 2 2.2208 2.51468 -1.89848 5.2711
23 1 -1.1104 3.98031 -0.61508 1.02049
24 1 -1.1104 3.96294 -0.557192 3.86335
82 2 2.2208 -0.280197 9.10423 2.42283
388 2 2.2208 8.12191 -2.01673 -0.453403
313 2 2.2208 -0.469834 14.8005 7.95226
172 1 -1.1104 4.0843 -3.4788 6.51268
174 1 -1.1104 4.01426 -0.411181 6.70958
170 1 -1.1104 0.98232 -0.598554 6.68214
166 1 -1.1104 1.29866 -3.29792 6.39601
320 2 2.2208 8.04673 17.645 7.8606
4 1 -1.1104 6.78382 -3.51571 1.06388
8 1 -1.1104 6.72649 -3.37985 3.89464
11 1 -1.1104 6.79438 -0.693306 1.07178
15 1 -1.1104 6.78802 -0.56462 3.98316
31 2 2.2208 10.944 0.841082 5.39994
32 1 -1.1104 12.4864 -3.55297 1.1752
34 1 -1.1104 12.4678 -3.50894 3.89451
36 1 -1.1104 12.4137 -0.630574 1.12149
37 2 2.2208 10.9642 -1.88733 2.59529
39 1 -1.1104 12.316 -0.501261 3.98609
40 1 -1.1104 9.62991 -3.36046 1.00446
42 2 2.2208 8.18013 0.611645 2.46848
43 1 -1.1104 9.64947 -3.34825 3.95453
45 2 2.2208 8.03184 -1.96428 5.48029
47 1 -1.1104 9.71775 -0.672624 1.23073
48 1 -1.1104 9.54961 -0.613865 4.01799
168 1 -1.1104 6.72659 -3.17492 6.84459
208 1 -1.1104 9.49942 -3.38446 6.65097
207 1 -1.1104 12.4091 -0.485306 6.832
171 1 -1.1104 6.77406 -0.451278 6.85588
205 1 -1.1104 12.3164 -3.15547 6.72658
210 1 -1.1104 9.43724 -0.598077 6.78873
390 2 2.2208 11.1086 -4.78988 -0.323327
203 2 2.2208 5.40224 -4.76862 10.8039
3 1 -1.1104 0.941524 2.09629 0.97218
7 1 -1.1104 0.98764 2.34221 3.83031
13 2 2.2208 5.52113 3.54499 2.47237
17 1 -1.1104 3.98837 2.29175 0.877402
20 1 -1.1104 3.88715 2.49445 3.6922
202 2 2.2208 2.47735 -4.64648 7.98077
22 2 2.2208 2.41194 3.64976 5.16847
54 2 2.2208 5.46026 6.32543 5.26156
56 1 -1.1104 1.17398 7.81964 1.11157
58 1 -1.1104 1.09163 7.76136 3.71918
60 1 -1.1104 1.23806 4.82006 0.93185
67 1 -1.1104 1.05033 5.07299 3.71792
71 1 -1.1104 4.06575 7.7321 0.928741
72 2 2.2208 2.57958 6.36533 2.41782
74 1 -1.1104 3.9878 7.65102 3.72856
76 1 -1.1104 3.96056 4.86682 1.02159
79 1 -1.1104 3.97744 5.25187 3.89537
381 2 2.2208 5.37056 0.816907 -0.374726
57 1 -1.1104 6.92846 7.5948 1.09552
81 2 2.2208 -0.322705 6.22055 5.22591
173 1 -1.1104 3.79098 2.18081 6.59148
238 1 -1.1104 4.05162 7.67592 6.71116
234 1 -1.1104 1.15208 7.64694 6.55881
236 1 -1.1104 1.1214 5.00366 6.58755
237 1 -1.1104 6.64543 4.97205 6.70667
9 1 -1.1104 6.75505 2.12689 3.97684
5 1 -1.1104 6.79581 2.20074 1.10084
33 1 -1.1104 12.3921 2.12399 0.895397
35 1 -1.1104 12.4037 2.09262 3.88268
38 2 2.2208 11.1266 3.3543 2.44423
41 1 -1.1104 9.47445 1.98669 1.1838
44 1 -1.1104 9.67628 2.11554 3.98206
46 2 2.2208 8.12613 3.59611 5.36736
63 1 -1.1104 6.79638 4.95152 1.07786
69 1 -1.1104 6.81986 4.89347 3.91571
59 1 -1.1104 6.90402 7.6458 3.86558
84 2 2.2208 11.0441 6.37898 5.17244
86 1 -1.1104 12.3749 7.7903 0.934583
87 1 -1.1104 12.3254 7.73936 3.7062
88 1 -1.1104 12.4577 5.03255 0.981811
92 1 -1.1104 12.3653 5.00543 3.82282
94 1 -1.1104 9.6464 7.8277 1.08564
95 2 2.2208 8.37685 6.18673 2.59046
97 1 -1.1104 9.59526 7.64365 3.79836
99 1 -1.1104 9.54021 4.80047 1.07763
102 1 -1.1104 9.62667 4.822 3.9138
267 1 -1.1104 9.60869 7.75412 6.72171
209 1 -1.1104 9.60944 2.24078 6.74878
169 1 -1.1104 6.84093 2.31569 6.81264
235 1 -1.1104 6.82579 7.61686 6.6161
269 1 -1.1104 9.53072 4.91913 6.69909
376 2 2.2208 8.16403 17.5225 13.5548
385 2 2.2208 5.27821 -4.64886 -0.221298
55 2 2.2208 5.24416 12.0268 5.273
61 1 -1.1104 1.22557 10.6893 1.01732
66 2 2.2208 5.44771 9.15483 2.52159
68 1 -1.1104 1.0946 10.4716 3.79372
73 2 2.2208 2.50301 11.9048 2.56226
75 2 2.2208 2.47689 9.04388 5.15735
77 1 -1.1104 3.99398 10.5473 1.01285
80 1 -1.1104 4.08654 10.7182 3.79296
25 2 2.2208 -0.363026 -1.97758 2.47128
387 2 2.2208 10.9212 0.894904 -0.350767
78 1 -1.1104 3.89521 10.1754 6.52818
70 1 -1.1104 6.89084 10.3497 3.95058
107 1 -1.1104 1.06873 13.5022 0.930256
113 1 -1.1104 0.961909 13.0748 3.90446
123 1 -1.1104 3.68881 13.341 0.820907
128 1 -1.1104 4.01076 13.2106 3.73733
108 1 -1.1104 0.934977 13.2624 6.66673
124 1 -1.1104 3.82818 13.2212 6.47881
336 2 2.2208 13.692 20.2834 5.20802
65 1 -1.1104 6.81007 10.5379 6.5914
64 1 -1.1104 6.72122 10.5378 1.27718
85 2 2.2208 10.9149 12.0347 5.18667
89 1 -1.1104 12.2513 10.5371 0.977063
91 2 2.2208 10.9893 9.24326 2.47078
93 1 -1.1104 12.475 10.5363 3.90149
96 2 2.2208 8.21651 11.8855 2.6141
98 2 2.2208 8.25442 8.9944 5.24394
100 1 -1.1104 9.64753 10.8166 1.15187
103 1 -1.1104 9.70732 10.4762 3.78951
323 1 -1.1104 12.2582 15.8929 9.2608
115 1 -1.1104 6.86508 13.33 3.92763
110 1 -1.1104 6.60149 13.3615 1.01068
142 1 -1.1104 12.4014 13.3397 0.903269
146 1 -1.1104 12.4472 13.5 3.64649
153 1 -1.1104 9.36089 13.3783 0.869922
158 1 -1.1104 9.67997 13.3727 3.67411
154 1 -1.1104 9.47219 13.3007 6.49465
90 1 -1.1104 12.3987 10.6294 6.6461
111 1 -1.1104 6.69455 13.3118 6.46112
369 2 2.2208 5.19537 20.3887 13.5754
204 2 2.2208 -0.0605875 -4.99175 10.8376
106 2 2.2208 5.13987 17.397 5.10345
109 1 -1.1104 0.954045 18.8793 0.877386
114 1 -1.1104 1.18397 18.952 3.60167
116 1 -1.1104 1.09622 16.1636 0.847104
119 2 2.2208 5.13952 14.6882 2.24642
120 2 2.2208 5.31537 20.2649 2.20484
121 1 -1.1104 0.855012 15.938 3.96999
125 1 -1.1104 3.76376 19.0203 0.988789
127 2 2.2208 2.52227 17.6233 2.27416
129 1 -1.1104 3.94407 18.9174 3.78901
130 2 2.2208 2.30644 14.5904 5.17122
131 2 2.2208 2.41198 20.3797 5.11811
132 1 -1.1104 3.70256 16.1623 0.937134
134 1 -1.1104 3.54532 16.102 3.52824
332 2 2.2208 13.63 17.4701 7.87581
27 2 2.2208 -0.329598 3.77781 2.40063
302 1 -1.1104 1.04856 18.8947 6.44415
112 1 -1.1104 6.50403 18.8766 6.40589
139 1 -1.1104 6.67626 18.9196 3.59549
140 1 -1.1104 6.35773 16.0742 0.812089
138 1 -1.1104 6.59691 18.9927 0.836888
122 1 -1.1104 6.38753 15.9941 3.69735
141 2 2.2208 10.7942 17.544 4.95449
144 1 -1.1104 12.1571 19.098 0.777291
147 1 -1.1104 12.3189 19.0505 3.64317
148 1 -1.1104 12.2395 16.1375 0.888935
150 2 2.2208 10.91 14.8221 2.33572
151 2 2.2208 10.8898 20.5694 2.23585
152 1 -1.1104 12.2749 16.1141 3.6107
155 1 -1.1104 9.30041 19.0031 0.942753
157 2 2.2208 7.99594 17.4817 2.21815
159 1 -1.1104 9.65657 19.1587 3.47428
160 2 2.2208 7.99299 14.8391 5.12041
161 2 2.2208 8.05247 20.2316 4.93277
162 1 -1.1104 9.27888 16.1669 0.904986
164 1 -1.1104 9.22099 16.3068 3.79921
371 2 2.2208 5.2389 14.9495 13.6432
149 1 -1.1104 12.0996 16.1354 6.36452
163 1 -1.1104 9.39194 16.1607 6.55035
52 2 2.2208 10.9261 -4.79463 5.18788
372 2 2.2208 10.8821 20.4326 13.5945
200 2 2.2208 -0.258332 -2.00798 7.93151
145 1 -1.1104 12.0534 18.8483 6.52391
367 2 2.2208 -0.378255 3.57345 13.7155
175 2 2.2208 5.11848 0.891425 10.8576
176 1 -1.1104 1.14077 -3.65345 12.2707
180 1 -1.1104 1.33116 -3.32367 9.36756
184 1 -1.1104 1.01245 -0.653369 12.3772
186 2 2.2208 5.32532 -1.97914 8.18189
188 1 -1.1104 1.14732 -0.670413 9.64261
190 1 -1.1104 3.94983 -3.55387 12.3654
192 2 2.2208 2.33941 0.83812 8.02981
193 1 -1.1104 3.95982 -3.22527 9.45095
195 2 2.2208 2.52555 -2.05078 11.0661
197 1 -1.1104 3.84002 -0.593476 12.3695
198 1 -1.1104 3.84973 -0.612601 9.57211
136 2 2.2208 -0.247831 20.3645 2.14243
118 1 -1.1104 6.48786 16.2491 6.42869
51 2 2.2208 8.13244 -4.61736 2.49339
29 2 2.2208 5.40824 -4.68002 5.27293
327 1 -1.1104 12.2436 18.9407 9.26626
182 1 -1.1104 6.78478 -3.23739 9.47969
185 1 -1.1104 6.70628 -0.683304 12.4012
189 1 -1.1104 6.61194 -0.449859 9.69571
178 1 -1.1104 6.70519 -3.39022 11.9861
211 2 2.2208 10.9555 0.591384 11.0065
212 1 -1.1104 12.2277 -3.50457 12.4092
214 1 -1.1104 12.479 -3.48388 9.54017
216 1 -1.1104 12.2703 -0.650878 12.3592
217 2 2.2208 10.9947 -1.93369 8.16175
219 1 -1.1104 12.2093 -0.542067 9.59365
220 1 -1.1104 9.41767 -3.45962 12.3496
222 2 2.2208 8.14806 0.866303 8.26781
223 1 -1.1104 9.75805 -3.42624 9.39866
225 2 2.2208 8.12608 -1.92695 10.8751
227 1 -1.1104 9.47014 -0.762855 12.3576
228 1 -1.1104 9.55495 -0.686934 9.59048
315 1 -1.1104 9.41868 15.9944 12.1411
314 1 -1.1104 9.34762 16.0932 9.17219
325 2 2.2208 10.8753 14.6033 7.90329
167 1 -1.1104 0.969338 2.2398 6.60498
177 1 -1.1104 1.01734 2.01993 12.1866
181 1 -1.1104 0.937555 2.27062 9.33606
187 2 2.2208 5.21901 3.72735 8.08368
191 1 -1.1104 3.87429 2.30398 12.2997
194 1 -1.1104 3.71952 2.29986 9.47984
196 2 2.2208 2.29069 3.5947 10.8945
199 2 2.2208 -0.409864 3.61203 8.07257
239 1 -1.1104 3.78531 5.04782 6.52064
240 2 2.2208 5.40167 6.30856 10.9402
242 1 -1.1104 1.16009 7.6664 12.2232
244 1 -1.1104 1.34356 7.66634 9.50733
246 1 -1.1104 1.00072 4.8876 12.2463
251 1 -1.1104 0.950594 5.06829 9.37932
255 1 -1.1104 3.99174 7.73683 12.2934
256 2 2.2208 2.53568 6.33722 8.05021
258 1 -1.1104 4.09506 7.69425 9.42099
260 1 -1.1104 3.91447 5.12249 12.2408
262 1 -1.1104 3.95208 4.94929 9.47033
342 2 2.2208 -0.318128 11.8551 10.8816
206 1 -1.1104 12.2805 2.39302 6.67819
266 1 -1.1104 12.2893 5.12411 6.7888
183 1 -1.1104 6.57247 2.32187 9.55319
179 1 -1.1104 6.69958 2.02413 12.1606
213 1 -1.1104 12.5034 2.23275 12.324
215 1 -1.1104 12.229 2.13026 9.66977
221 1 -1.1104 9.49877 1.97923 12.3388
224 1 -1.1104 9.39883 2.12769 9.45775
226 2 2.2208 7.96565 3.61328 10.9634
218 2 2.2208 10.9338 3.50517 8.23041
265 1 -1.1104 12.3758 7.97289 6.44098
243 1 -1.1104 6.82363 7.74334 12.1863
245 1 -1.1104 6.82476 7.51414 9.49964
248 1 -1.1104 6.65515 5.00249 12.3352
253 1 -1.1104 6.7577 4.90685 9.53366
268 1 -1.1104 9.6178 4.91542 9.4655
271 1 -1.1104 9.39812 4.82663 12.3113
273 1 -1.1104 9.49778 7.75459 9.5971
275 2 2.2208 8.09174 6.24009 8.11467
276 2 2.2208 10.9142 6.31299 10.7776
278 1 -1.1104 12.3763 7.66299 12.3613
279 1 -1.1104 12.3435 7.75406 9.41667
280 1 -1.1104 12.0145 4.88168 12.1421
283 1 -1.1104 12.4617 5.0859 9.56074
285 1 -1.1104 9.52196 7.66706 12.3634
324 2 2.2208 10.8895 20.4536 7.95862
231 2 2.2208 8.12838 -4.74591 8.1363
62 1 -1.1104 0.939904 10.3938 6.61143
326 1 -1.1104 12.3096 16.0461 12.1588
317 2 2.2208 7.94745 14.7174 10.775
343 2 2.2208 -0.253849 9.16635 7.9328
137 2 2.2208 -0.474891 17.5816 4.89896
241 2 2.2208 5.30566 11.843 10.7359
247 1 -1.1104 1.18825 10.4216 12.282
250 2 2.2208 5.46059 8.88557 7.94265
252 1 -1.1104 1.14214 10.5871 9.54189
257 2 2.2208 2.32105 11.8435 8.00688
259 2 2.2208 2.55824 9.27284 10.7389
261 1 -1.1104 3.98167 10.5863 12.2078
263 1 -1.1104 4.05333 10.6082 9.30446
305 1 -1.1104 3.89512 13.3216 9.40563
299 1 -1.1104 0.973191 13.3549 12.1555
294 1 -1.1104 0.870477 13.4117 9.49861
287 1 -1.1104 3.93884 13.2667 12.0568
322 1 -1.1104 9.31312 13.4297 12.1742
290 1 -1.1104 6.63482 13.1239 9.30835
143 1 -1.1104 12.2741 13.3065 6.56026
101 1 -1.1104 9.65996 10.5389 6.66863
254 1 -1.1104 6.64711 10.3773 9.43347
249 1 -1.1104 6.84276 10.5144 12.3116
264 1 -1.1104 9.43807 10.4771 9.4185
270 1 -1.1104 9.61439 10.632 12.3072
272 2 2.2208 8.20886 9.12949 10.8955
274 2 2.2208 8.15217 11.9956 7.95912
277 2 2.2208 10.8561 11.8633 10.8635
281 1 -1.1104 12.3428 10.4649 12.3742
282 2 2.2208 10.98 9.12917 8.00967
284 1 -1.1104 12.2673 10.6015 9.5439
319 1 -1.1104 9.40735 13.376 9.43521
328 1 -1.1104 12.1993 13.2112 9.57281
330 1 -1.1104 12.2529 13.1189 12.3114
297 1 -1.1104 6.66857 13.3215 12.3034
296 1 -1.1104 6.70973 18.6737 12.2244
289 1 -1.1104 6.76187 15.9814 9.32604
331 2 2.2208 10.8495 17.5319 10.6187
126 1 -1.1104 3.80799 18.8513 6.43879
133 1 -1.1104 3.89715 15.8911 6.4972
117 1 -1.1104 0.855713 16.0912 6.70492
288 1 -1.1104 6.70568 18.8852 9.51131
311 2 2.2208 -0.348762 20.2051 7.82779
30 2 2.2208 -0.297707 -4.76719 5.11751
309 2 2.2208 2.69233 20.1248 10.6406
308 1 -1.1104 3.75892 16.0207 12.091
307 1 -1.1104 1.07879 16.1819 12.1552
304 1 -1.1104 3.85829 16.2617 9.27178
303 2 2.2208 2.41958 17.4642 7.96662
301 1 -1.1104 3.92088 18.8268 9.32179
300 2 2.2208 5.35949 17.3563 10.6898
298 1 -1.1104 0.992521 18.7182 12.3484
295 2 2.2208 5.30322 14.6073 8.04477
310 2 2.2208 2.37182 14.6866 10.6806
293 2 2.2208 5.25248 20.1639 7.9442
292 1 -1.1104 1.05968 16.1952 9.34856
291 1 -1.1104 1.22079 18.8332 9.3431
286 1 -1.1104 4.0561 18.8687 12.2689
321 1 -1.1104 9.50654 18.9916 11.9513
329 1 -1.1104 12.4756 18.8867 11.9774
306 1 -1.1104 6.6118 16.0617 12.1186
156 1 -1.1104 9.2521 18.8011 6.21592
318 1 -1.1104 9.57555 19.017 9.04824
316 2 2.2208 7.99993 20.3208 10.7961
389 2 2.2208 8.13142 3.54315 -0.342563
312 2 2.2208 -0.21432 17.5808 10.757
380 2 2.2208 13.9605 17.6178 13.4677
368 2 2.2208 2.40839 17.4845 13.5857
344 2 2.2208 -0.280277 6.34262 10.8483
350 2 2.2208 -0.294051 20.301 13.553
337 2 2.2208 13.6436 14.5452 5.1677
26 2 2.2208 -0.31074 0.957458 5.22972
165 2 2.2208 13.6923 17.6924 2.29375
359 2 2.2208 2.61081 6.33708 13.5864
373 2 2.2208 10.8622 14.7454 13.5165
400 2 2.2208 10.9401 11.8999 -0.46925
334 2 2.2208 13.5633 3.67494 5.30506
382 2 2.2208 2.41098 -1.99641 -0.36344
357 2 2.2208 10.9414 3.47354 13.5851
403 2 2.2208 2.31428 14.7684 -0.538469
360 2 2.2208 5.31037 9.19308 13.5333
375 2 2.2208 13.7303 20.5876 -0.564055
393 2 2.2208 5.29589 6.28629 -0.223727
399 2 2.2208 8.24513 9.20676 -0.236417
351 2 2.2208 -0.124031 14.6296 13.5177
406 2 2.2208 5.44988 0.674974 16.4684
407 1 -1.1104 1.21785 -3.57503 17.8173
411 1 -1.1104 1.03771 -3.46314 15.0534
419 1 -1.1104 1.07537 -0.804169 18.0296
421 2 2.2208 5.32073 -2.12107 19.3517
423 1 -1.1104 1.22593 -0.54411 15.3659
427 1 -1.1104 4.07958 -3.38931 17.8696
429 2 2.2208 2.5729 0.704486 19.3097
430 1 -1.1104 3.93975 -3.48557 14.977
434 2 2.2208 2.55313 -2.024 16.515
436 1 -1.1104 3.84124 -0.638067 17.9542
437 1 -1.1104 3.99221 -0.72576 15.0902
443 2 2.2208 -0.307606 -2.06097 19.3375
481 2 2.2208 -0.164329 6.26864 16.4061
723 2 2.2208 -0.426417 17.4983 22.0738
642 2 2.2208 -0.208741 -2.02244 24.9225
405 2 2.2208 2.33599 20.4171 27.6676
404 2 2.2208 5.09151 17.5504 27.5666
438 1 -1.1104 3.80439 -0.739451 20.7507
431 1 -1.1104 3.71934 -3.49373 20.6392
424 1 -1.1104 1.08158 -0.858417 20.6776
412 1 -1.1104 0.966672 -3.50709 20.7257
439 2 2.2208 -0.223926 -4.73062 16.5426
420 1 -1.1104 6.69439 -0.539738 18.1242
415 1 -1.1104 6.72064 -3.43845 15.0691
409 1 -1.1104 6.84773 -3.27586 18.0468
425 1 -1.1104 6.87629 -0.723657 15.1349
449 2 2.2208 11.0222 0.809421 16.7351
450 1 -1.1104 12.2175 -3.43398 18.0109
452 1 -1.1104 12.2539 -3.50134 15.1213
456 1 -1.1104 12.421 -0.820325 18.035
457 2 2.2208 10.9272 -2.07489 19.2932
459 1 -1.1104 12.4175 -0.871003 15.3142
461 1 -1.1104 9.37918 -3.42795 18.1263
463 2 2.2208 8.15014 0.696669 19.4565
464 1 -1.1104 9.49892 -3.48857 15.196
468 2 2.2208 8.16911 -2.02158 16.4773
470 1 -1.1104 9.62764 -0.529767 18.0364
471 1 -1.1104 9.71507 -0.663199 15.3097
416 1 -1.1104 6.84562 -3.42593 20.9856
472 1 -1.1104 9.55024 -0.613502 21.0024
641 2 2.2208 10.8562 20.4141 24.7694
640 2 2.2208 2.4637 -4.86537 24.8983
426 1 -1.1104 6.74205 -0.828838 20.7822
580 2 2.2208 13.7154 14.6303 21.9854
408 1 -1.1104 0.895483 2.10694 18.0743
413 1 -1.1104 1.08821 2.37089 15.1932
422 2 2.2208 5.2958 3.49538 19.195
428 1 -1.1104 3.849 2.28719 17.864
432 1 -1.1104 4.017 1.99916 15.16
435 2 2.2208 2.39377 3.63302 16.5233
544 2 2.2208 -0.316325 3.64367 19.3488
482 2 2.2208 5.20723 6.49846 16.3433
484 1 -1.1104 1.08647 7.71143 17.8855
486 1 -1.1104 0.978351 7.79188 15.0222
490 1 -1.1104 1.07905 5.05287 17.8811
495 1 -1.1104 1.02854 4.94877 15.0238
503 1 -1.1104 3.75508 7.86552 17.8646
504 2 2.2208 2.47198 6.43658 19.2237
506 1 -1.1104 3.76923 7.70174 15.0106
509 1 -1.1104 3.87988 5.14279 17.7257
511 1 -1.1104 3.82764 4.90062 14.8848
356 2 2.2208 10.8296 -2.07644 13.6991
512 1 -1.1104 3.80978 5.00097 20.6018
507 1 -1.1104 3.92231 7.76557 20.4881
414 1 -1.1104 1.12993 2.1644 20.7641
487 1 -1.1104 1.14918 7.89953 20.7056
496 1 -1.1104 1.20197 4.97888 20.6317
605 2 2.2208 13.6205 17.5704 24.7928
417 1 -1.1104 6.82347 2.14933 15.0824
410 1 -1.1104 6.7485 2.41503 17.9845
451 1 -1.1104 12.4391 2.20852 17.9638
454 1 -1.1104 12.4234 2.16125 15.0753
458 2 2.2208 11.0217 3.53945 19.4022
462 1 -1.1104 9.67464 2.07355 18.0573
466 1 -1.1104 9.48164 2.10227 15.3373
469 2 2.2208 8.21665 3.60701 16.5021
488 1 -1.1104 6.72533 7.82677 15.0736
485 1 -1.1104 6.5692 7.7677 17.8966
499 1 -1.1104 6.52802 4.76755 15.1633
492 1 -1.1104 6.7749 5.09461 17.8083
518 2 2.2208 10.7323 6.4095 16.5336
520 1 -1.1104 12.01 7.66492 17.8142
521 1 -1.1104 12.2951 7.75249 15.1976
523 1 -1.1104 12.2658 4.95867 17.9116
526 1 -1.1104 12.1666 4.88829 14.9645
530 1 -1.1104 9.44163 7.8519 17.8495
531 2 2.2208 8.06761 6.33308 19.2907
533 1 -1.1104 9.44996 7.77028 15.0502
536 1 -1.1104 9.64706 4.9438 18.1048
538 1 -1.1104 9.45516 5.01126 15.0774
418 1 -1.1104 6.78985 2.06185 20.7445
467 1 -1.1104 9.59235 2.12748 20.7089
455 1 -1.1104 12.4661 2.20536 20.7434
534 1 -1.1104 9.37204 7.71642 20.646
527 1 -1.1104 12.4419 4.97751 20.7664
353 2 2.2208 8.0626 -4.94553 13.6991
378 2 2.2208 10.7997 17.5359 27.7662
483 2 2.2208 5.26808 12.11 16.4919
491 1 -1.1104 1.11012 10.6812 17.9352
494 2 2.2208 5.36003 9.17993 19.2255
497 1 -1.1104 0.898706 10.5765 15.3063
505 2 2.2208 2.51045 12.0517 19.3253
508 2 2.2208 2.37775 9.31139 16.5135
510 1 -1.1104 3.84611 10.5994 17.8094
513 1 -1.1104 3.73857 10.6208 15.1072
475 2 2.2208 8.01828 -4.79539 19.4369
546 1 -1.1104 1.11052 13.4509 18.0059
550 1 -1.1104 1.19227 13.3409 15.0468
566 1 -1.1104 3.89327 13.5325 17.8616
569 1 -1.1104 3.86104 13.3068 14.9964
570 1 -1.1104 3.81237 13.2055 20.7342
502 1 -1.1104 6.74624 10.5475 20.7661
501 1 -1.1104 6.56919 10.6878 14.9829
493 1 -1.1104 6.68227 10.5773 17.9058
519 2 2.2208 10.9879 11.8896 16.3919
524 1 -1.1104 12.2074 10.5201 17.7658
525 2 2.2208 10.7952 9.157 19.2246
528 1 -1.1104 12.3809 10.5323 15.0212
532 2 2.2208 8.28295 11.9876 19.2796
535 2 2.2208 7.97022 9.21653 16.4835
537 1 -1.1104 9.51224 10.641 17.9094
540 1 -1.1104 9.46342 10.7007 15.1164
529 1 -1.1104 12.2044 10.6064 20.6924
548 1 -1.1104 6.80086 13.4975 17.9801
554 1 -1.1104 6.78244 13.4327 14.987
582 1 -1.1104 12.328 13.4077 17.6843
584 1 -1.1104 12.4475 13.2465 14.9918
593 1 -1.1104 9.60604 13.4909 17.8517
596 1 -1.1104 9.65959 13.4437 15.1358
597 1 -1.1104 9.23154 13.5531 20.5258
585 1 -1.1104 12.2921 13.3562 20.46
476 2 2.2208 -0.345156 20.3917 19.215
440 2 2.2208 5.30857 -4.88768 16.5097
573 2 2.2208 2.39189 14.7868 16.5425
545 2 2.2208 5.3519 17.7133 16.363
547 1 -1.1104 1.12674 18.9542 17.7994
552 1 -1.1104 0.959937 18.9458 15.076
558 1 -1.1104 0.902971 16.2022 17.8476
560 2 2.2208 5.29505 14.7677 19.3038
561 2 2.2208 5.31882 20.5011 19.2983
562 1 -1.1104 1.09197 16.1713 15.087
567 1 -1.1104 3.97893 18.9439 17.9063
568 2 2.2208 2.41782 17.6078 19.1063
571 1 -1.1104 3.82471 19.0007 15.0477
574 2 2.2208 2.41993 20.3601 16.4088
575 1 -1.1104 3.68923 16.3082 17.6431
576 1 -1.1104 3.93252 16.3018 14.9321
639 2 2.2208 5.25888 -4.79359 22.1853
473 2 2.2208 13.5736 -4.72476 19.4098
448 2 2.2208 -0.303696 14.7808 19.3636
577 1 -1.1104 3.94993 16.0867 20.5625
563 1 -1.1104 1.1248 16.0898 20.6002
565 1 -1.1104 6.60671 16.3 20.5748
474 2 2.2208 10.8732 -4.8887 16.4735
667 2 2.2208 8.0819 17.5066 24.8269
556 1 -1.1104 6.6059 19.0032 14.8283
564 1 -1.1104 6.71783 16.2416 15.0331
549 1 -1.1104 6.73433 19.0068 17.7374
559 1 -1.1104 6.59858 16.2801 17.7442
581 2 2.2208 10.9798 17.6018 16.3141
583 1 -1.1104 12.4954 18.9351 17.6791
586 1 -1.1104 12.1559 18.8847 14.9046
588 1 -1.1104 12.2804 16.086 17.7625
589 2 2.2208 10.8527 14.9325 19.3027
590 2 2.2208 10.9139 20.2219 19.3272
591 1 -1.1104 12.3467 16.0787 14.8384
594 1 -1.1104 9.64834 19.0181 17.7186
595 2 2.2208 8.04569 17.7586 19.1148
598 1 -1.1104 9.5237 19.0375 14.995
600 2 2.2208 8.25918 14.8568 16.4697
601 2 2.2208 8.05562 20.2845 16.3143
602 1 -1.1104 9.56796 16.2719 17.8336
603 1 -1.1104 9.56032 16.2613 14.9769
347 2 2.2208 2.43611 -4.93143 13.6732
599 1 -1.1104 9.55903 18.9714 20.5272
348 2 2.2208 5.37902 -2.0089 13.6903
736 1 -1.1104 6.64663 19.0137 23.5128
444 2 2.2208 -0.37841 6.3159 22.0814
669 2 2.2208 8.11181 -4.82945 25.0165
355 2 2.2208 8.15516 0.700491 13.7806
609 2 2.2208 5.24735 0.865588 22.1833
610 1 -1.1104 1.18536 -3.46684 23.4569
614 1 -1.1104 1.18685 -3.39169 26.2792
618 1 -1.1104 1.14073 -0.555033 23.541
620 2 2.2208 5.36292 -1.96128 24.9453
622 1 -1.1104 1.10588 -0.629707 26.3586
624 1 -1.1104 3.95334 -3.35029 23.6038
626 2 2.2208 2.41909 0.858222 24.8348
627 1 -1.1104 3.94262 -3.2075 26.6253
629 2 2.2208 2.53431 -2.0911 22.032
631 1 -1.1104 3.97676 -0.540259 23.5581
632 1 -1.1104 3.92527 -0.499752 26.2904
670 1 -1.1104 6.57873 18.9582 26.2717
557 1 -1.1104 6.40069 19.1733 20.7996
516 2 2.2208 -0.574176 11.9687 16.5049
453 1 -1.1104 12.2419 -3.35638 20.9078
460 1 -1.1104 12.2487 -0.599521 20.7306
612 1 -1.1104 6.83571 -3.36502 23.6035
616 1 -1.1104 6.68816 -3.27998 26.416
619 1 -1.1104 6.79975 -0.518526 23.655
623 1 -1.1104 6.90475 -0.412193 26.3258
465 1 -1.1104 9.53212 -3.35847 20.8104
645 2 2.2208 11.0444 0.766958 22.1447
646 1 -1.1104 12.4502 -3.44268 23.6222
648 1 -1.1104 12.32 -3.3079 26.422
650 1 -1.1104 12.3596 -0.661249 23.6574
651 2 2.2208 11.0705 -1.90275 25.0752
653 1 -1.1104 12.5017 -0.542278 26.4263
654 1 -1.1104 9.63161 -3.27619 23.7114
656 2 2.2208 8.18674 0.923117 25.0029
657 1 -1.1104 9.58049 -3.65444 26.3781
659 2 2.2208 8.2158 -1.9816 22.2704
661 1 -1.1104 9.58636 -0.463151 23.7584
662 1 -1.1104 9.70977 -0.605634 26.5264
433 1 -1.1104 3.89354 2.10865 20.6661
644 2 2.2208 -0.422373 3.51396 24.9778
611 1 -1.1104 1.07573 2.13329 23.5553
615 1 -1.1104 1.12223 2.07383 26.2367
621 2 2.2208 5.23313 3.66132 24.8242
625 1 -1.1104 3.69249 2.15812 23.1332
628 1 -1.1104 3.88101 2.27179 26.2418
630 2 2.2208 2.39511 3.6137 21.9943
674 2 2.2208 5.1203 6.40776 22.1036
676 1 -1.1104 1.01129 7.87425 23.4331
678 1 -1.1104 1.16947 7.80876 26.4168
680 1 -1.1104 1.00047 5.07194 23.5926
685 1 -1.1104 1.04401 4.93591 26.4153
689 1 -1.1104 3.87136 7.86937 23.4915
690 2 2.2208 2.45781 6.43232 24.943
692 1 -1.1104 3.90635 7.77009 26.2981
694 1 -1.1104 3.64254 5.05118 23.3407
696 1 -1.1104 3.78303 5.02363 26.356
636 1 -1.1104 12.1499 16.0568 23.4065
638 2 2.2208 10.6547 14.8378 25.0733
637 2 2.2208 -0.328594 -4.7467 22.1308
539 1 -1.1104 9.57773 4.97175 20.6238
489 1 -1.1104 6.67876 7.65195 20.7498
613 1 -1.1104 6.75894 2.36577 23.5341
617 1 -1.1104 6.76728 2.30465 26.3258
647 1 -1.1104 12.3801 2.07837 23.4737
649 1 -1.1104 12.3719 2.46811 26.4453
652 2 2.2208 10.8977 3.61193 24.9726
655 1 -1.1104 9.66587 2.23282 23.6134
658 1 -1.1104 9.61018 2.30662 26.3342
660 2 2.2208 8.29286 3.55881 22.0347
679 1 -1.1104 6.7303 7.87645 26.3674
500 1 -1.1104 6.76755 4.91807 20.7531
522 1 -1.1104 12.2762 7.72929 20.7417
682 1 -1.1104 6.69116 4.96343 23.6152
677 1 -1.1104 6.60327 7.74548 23.6099
687 1 -1.1104 6.60718 5.09176 26.417
706 1 -1.1104 9.64391 5.01008 26.3443
708 1 -1.1104 9.60738 4.91397 23.4844
710 1 -1.1104 9.54741 7.83645 26.475
712 2 2.2208 8.05977 6.35081 24.8541
713 2 2.2208 10.9382 6.38264 21.9389
715 1 -1.1104 12.0818 7.69602 23.509
716 1 -1.1104 12.3946 7.78862 26.3188
717 1 -1.1104 12.5355 4.86703 23.4914
720 1 -1.1104 12.3376 4.98535 26.1332
722 1 -1.1104 9.17272 7.7182 23.3984
377 2 2.2208 7.92905 14.57 27.6883
635 1 -1.1104 12.0677 18.99 26.1702
498 1 -1.1104 1.14994 10.4955 20.7667
514 1 -1.1104 4.04274 10.6461 20.5151
606 2 2.2208 13.6429 20.2683 21.9442
515 2 2.2208 -0.234656 9.25481 19.2471
675 2 2.2208 5.25173 11.976 22.0979
681 1 -1.1104 0.888392 10.5693 23.5485
684 2 2.2208 5.2923 9.16077 25.073
686 1 -1.1104 1.03656 10.5857 26.351
691 2 2.2208 2.44817 11.9217 24.8657
693 2 2.2208 2.59623 9.20493 22.0372
695 1 -1.1104 3.73773 10.589 23.3589
697 1 -1.1104 3.81629 10.5529 26.2728
551 1 -1.1104 1.12744 13.3469 20.8049
746 1 -1.1104 3.77541 13.3558 26.3101
731 1 -1.1104 3.87597 13.3452 23.332
735 1 -1.1104 1.08736 13.2338 26.3851
741 1 -1.1104 1.10833 13.2767 23.6611
739 1 -1.1104 6.61665 13.3079 23.6229
664 1 -1.1104 9.42241 13.4719 23.5253
673 1 -1.1104 9.36076 13.2891 26.3738
608 1 -1.1104 12.1757 13.2573 23.3295
541 1 -1.1104 9.51492 10.699 20.9021
683 1 -1.1104 6.62835 10.4203 23.5274
688 1 -1.1104 6.89124 10.5937 26.6838
705 1 -1.1104 9.53992 10.5446 26.4863
707 1 -1.1104 9.45481 10.5102 23.6449
709 2 2.2208 8.06474 9.21027 22.081
711 2 2.2208 7.99004 11.8469 24.9863
714 2 2.2208 10.8671 11.8274 22.2518
718 1 -1.1104 12.165 10.478 23.6264
719 2 2.2208 10.913 9.13681 25.0733
721 1 -1.1104 12.3234 10.5403 26.2247
634 1 -1.1104 12.2872 13.4595 26.2719
555 1 -1.1104 6.61341 13.4438 20.7367
730 1 -1.1104 6.51068 13.1175 26.211
607 2 2.2208 10.9167 17.5176 22.0573
701 1 -1.1104 9.47017 16.1746 23.4345
698 1 -1.1104 9.3656 19.0214 26.1612
643 2 2.2208 -0.205873 0.691377 22.1029
553 1 -1.1104 0.913073 18.9935 20.5592
700 2 2.2208 8.03913 20.3323 22.1153
572 1 -1.1104 3.46811 18.7436 20.7032
748 1 -1.1104 1.04746 16.0129 23.4185
745 1 -1.1104 3.85528 16.1478 26.1529
744 2 2.2208 2.4441 17.5478 24.8407
750 2 2.2208 2.31094 20.333 22.0921
749 1 -1.1104 3.79133 16.1876 23.4131
727 2 2.2208 2.52039 14.8757 21.9578
729 1 -1.1104 3.75924 18.8847 23.4804
733 1 -1.1104 1.05144 18.8091 26.2894
734 1 -1.1104 0.977841 16.001 26.0321
737 2 2.2208 5.21106 20.3525 24.7693
738 2 2.2208 5.24315 14.633 24.9431
740 1 -1.1104 1.0984 18.9661 23.5579
742 2 2.2208 5.22759 17.4821 22.0858
743 1 -1.1104 3.81743 19.0614 26.3188
747 1 -1.1104 6.58601 16.1438 23.3331
699 2 2.2208 8.16098 14.7944 22.0462
732 1 -1.1104 6.55295 16.0614 26.0496
592 1 -1.1104 12.317 16.0715 20.5612
587 1 -1.1104 12.3134 18.8707 20.4695
604 1 -1.1104 9.40022 16.3105 20.6416
665 1 -1.1104 9.54961 18.9608 23.4163
704 1 -1.1104 9.40217 16.2155 26.3356
633 1 -1.1104 12.2645 19.0637 23.265
663 1 -1.1104 12.2943 16.203 26.3426
442 2 2.2208 -0.30936 0.787681 16.6073
394 2 2.2208 2.46686 9.10374 27.7386
396 2 2.2208 -0.24472 11.8855 27.796
352 2 2.2208 5.30335 3.61453 13.6628
447 2 2.2208 -0.416212 17.5052 16.2889
395 2 2.2208 5.19818 11.9872 27.7449
383 2 2.2208 2.50087 3.56668 27.7175
543 2 2.2208 13.6559 9.09875 16.399
346 2 2.2208 -0.221425 -1.99577 13.7136
384 2 2.2208 -0.188467 -4.85628 27.7461
358 2 2.2208 -0.161634 9.07725 13.6077
517 2 2.2208 13.5945 11.9469 19.1726
374 2 2.2208 13.5092 14.9141 27.7465
703 2 2.2208 -0.395333 11.8596 22.1538
445 2 2.2208 13.62 9.17627 22.1581
361 2 2.2208 2.37948 11.9337 13.7028
363 2 2.2208 8.03189 6.36365 13.7868
379 2 2.2208 8.09793 20.3191 27.5861
349 2 2.2208 2.37579 0.929423 13.7737
366 2 2.2208 13.6089 6.31249 13.8524
365 2 2.2208 8.18652 12.0971 13.7387
397 2 2.2208 -0.462056 6.39669 27.5917
386 2 2.2208 -0.284604 0.825466 27.5425
398 2 2.2208 10.9792 6.35671 27.7743
364 2 2.2208 10.9222 9.18399 13.8169
751 2 2.2208 5.27469 23.0963 5.05061
753 1 -1.1104 1.02123 24.49 1.01626
754 1 -1.1104 0.990676 24.465 3.74867
755 1 -1.1104 1.10807 21.7912 0.914931
757 2 2.2208 5.35171 26.0287 2.36358
758 1 -1.1104 1.13956 21.7309 3.73099
759 1 -1.1104 1.07547 27.2684 3.72519
760 1 -1.1104 3.91691 24.462 0.929243
761 2 2.2208 2.48491 23.1572 2.26329
763 1 -1.1104 3.94542 24.4006 3.73019
764 2 2.2208 2.46929 25.7448 5.04277
765 1 -1.1104 3.78504 21.7256 0.977826
767 1 -1.1104 3.81607 21.7095 3.73897
766 1 -1.1104 3.90364 27.4181 1.00369
768 1 -1.1104 3.84547 27.1631 3.69196
895 1 -1.1104 1.06272 27.2407 6.45933
898 1 -1.1104 3.7503 24.3126 6.51719
772 1 -1.1104 6.73202 24.5824 1.07262
897 1 -1.1104 6.53786 27.1319 6.61564
1040 2 2.2208 -0.419785 42.7358 8.02976
769 2 2.2208 -0.3476 28.6152 5.07301
1673 1 -1.1104 1.00988 46.9783 6.69062
774 1 -1.1104 6.70585 21.7367 0.766648
776 1 -1.1104 6.65693 21.6141 3.57613
777 1 -1.1104 6.7203 27.3119 3.71975
773 1 -1.1104 6.68447 24.5479 3.87153
778 2 2.2208 10.9554 23.1342 5.16181
780 1 -1.1104 12.3462 24.4737 1.26677
781 1 -1.1104 12.4978 24.611 3.91321
782 1 -1.1104 12.2792 21.7681 0.72295
784 2 2.2208 10.9929 26.0353 2.43114
785 1 -1.1104 12.446 21.7857 3.70381
787 1 -1.1104 9.48093 24.6448 1.05978
788 2 2.2208 8.17878 23.1482 2.31896
790 1 -1.1104 9.63073 24.6452 3.67178
791 2 2.2208 8.05563 25.9729 5.10177
792 1 -1.1104 9.47242 21.814 0.910307
793 1 -1.1104 9.34117 27.3609 1.11143
794 1 -1.1104 9.52473 21.8089 3.71649
795 1 -1.1104 9.48347 27.4044 3.94776
786 1 -1.1104 12.3344 27.4282 3.888
775 1 -1.1104 6.62514 27.5216 1.0353
1532 1 -1.1104 9.42588 46.9752 1.10594
896 1 -1.1104 6.58535 21.6865 6.49124
1536 1 -1.1104 9.51617 46.7833 3.73685
756 1 -1.1104 1.08569 27.4078 1.03364
752 2 2.2208 5.32666 28.8496 5.15356
762 2 2.2208 2.61098 28.7605 2.50013
1694 1 -1.1104 3.5682 46.9641 9.3934
800 1 -1.1104 1.04761 30.0483 1.17434
803 1 -1.1104 1.26354 29.9755 3.89869
806 1 -1.1104 1.20899 33.0524 0.900418
807 2 2.2208 5.33524 31.6821 2.35416
809 1 -1.1104 1.24254 32.8125 3.5689
811 1 -1.1104 3.99653 30.4654 0.986537
814 1 -1.1104 4.02948 30.2095 3.73923
816 2 2.2208 2.49116 31.5145 5.14146
818 1 -1.1104 4.02368 33.0357 0.877348
819 1 -1.1104 3.99746 33.1492 3.73597
953 1 -1.1104 1.0439 32.7802 6.61587
1674 1 -1.1104 6.61584 47.0129 6.71656
783 1 -1.1104 12.3443 27.345 1.18683
779 2 2.2208 10.8034 28.8176 5.25219
789 2 2.2208 8.1082 28.8698 2.42864
825 1 -1.1104 6.75007 33.0751 1.0594
824 1 -1.1104 6.79568 30.0622 3.72851
810 1 -1.1104 6.75619 32.8427 3.77166
823 1 -1.1104 6.82747 30.2929 1.10964
827 1 -1.1104 12.4028 30.1213 1.04886
829 1 -1.1104 12.1932 30.2788 3.94303
831 1 -1.1104 12.406 33.0131 1.06354
832 2 2.2208 10.9715 31.4845 2.27028
834 1 -1.1104 12.1668 32.9198 3.76381
835 1 -1.1104 9.57509 30.2599 0.876063
838 1 -1.1104 9.49796 30.3199 3.62843
840 2 2.2208 8.06033 31.4661 5.16536
842 1 -1.1104 9.55789 32.847 1.03955
843 1 -1.1104 9.36627 33.1202 3.9427
954 1 -1.1104 6.53188 32.8567 6.36931
951 1 -1.1104 6.61985 30.161 6.68843
1075 2 2.2208 -0.370966 22.8347 10.8307
1102 2 2.2208 8.29296 34.2815 13.6497
799 2 2.2208 5.14774 34.445 5.18719