ITEM: TIMESTEP
80000
ITEM: NUMBER OF ATOMS
17732
ITEM: BOX BOUNDS pp pp pp
-4.0726266129573485e-01 2.7747262661297093e+01
-4.8441381641135086e+00 3.3292413816410919e+02
-4.1308902772195771e-01 2.7753089027722115e+01
ITEM: ATOMS id type q x y z
1 2 2.2208 4.93292 0.822899 5.21428
2 1 -1.1104 0.916255 -3.66082 1.09875
6 1 -1.1104 0.959882 -3.48648 3.92552
10 1 -1.1104 0.775441 -0.79766 1.28537
12 2 2.2208 5.18291 -1.99652 2.41729
14 1 -1.1104 0.731811 -0.577869 4.02346
16 1 -1.1104 3.65389 -3.32223 1.14071
18 2 2.2208 2.16549 0.758979 2.52257
19 1 -1.1104 3.68944 -3.53477 3.98137
21 2 2.2208 2.21487 -2.08237 5.28354
23 1 -1.1104 3.67128 -0.556967 0.94225
24 1 -1.1104 3.64751 -0.671084 3.90165
166 1 -1.1104 0.721543 -3.62811 6.49771
170 1 -1.1104 0.675963 -0.589208 6.68842
8 1 -1.1104 6.49527 -3.55426 3.89492
4 1 -1.1104 6.47376 -3.38503 1.06508
15 1 -1.1104 6.32905 -0.559764 3.87021
168 1 -1.1104 6.37035 -3.43256 6.71736
11 1 -1.1104 6.55882 -0.616417 0.985903
171 1 -1.1104 6.44597 -0.67063 6.52212
341 2 2.2208 13.5 9.22617 10.9303
172 1 -1.1104 3.51018 -3.23369 6.63889
174 1 -1.1104 3.48137 -0.485055 6.72977
332 2 2.2208 13.598 17.6214 8.09047
49 2 2.2208 13.6989 0.719663 2.31983
104 2 2.2208 13.2841 11.9572 2.33818
31 2 2.2208 10.7043 0.779467 5.09599
32 1 -1.1104 12.1275 -3.42041 0.94984
34 1 -1.1104 12.0358 -3.34196 3.90352
36 1 -1.1104 12.3218 -0.621051 1.07626
37 2 2.2208 10.7354 -1.98771 2.51247
39 1 -1.1104 12.1551 -0.533076 3.83951
40 1 -1.1104 9.40493 -3.42495 1.1166
42 2 2.2208 7.87053 0.610408 2.56482
43 1 -1.1104 9.36326 -3.23105 3.91855
45 2 2.2208 7.81121 -2.14834 5.25658
47 1 -1.1104 9.41077 -0.680837 0.924262
48 1 -1.1104 9.16949 -0.717703 3.81551
210 1 -1.1104 9.36577 -0.569022 6.48075
205 1 -1.1104 11.9117 -3.32568 6.54143
202 2 2.2208 2.20467 -4.8636 7.96618
203 2 2.2208 5.16759 -4.7214 10.8381
207 1 -1.1104 12.3357 -0.688476 6.72321
3 1 -1.1104 0.835817 2.15855 0.985991
7 1 -1.1104 0.74594 2.3284 4.03217
17 1 -1.1104 3.64327 2.18013 0.860606
20 1 -1.1104 3.75321 2.20053 3.71584
22 2 2.2208 2.2442 3.5432 5.14455
13 2 2.2208 4.97528 3.66892 2.3088
173 1 -1.1104 3.65717 2.29172 6.49746
5 1 -1.1104 6.60558 2.24345 1.02536
9 1 -1.1104 6.49623 2.14411 3.79024
54 2 2.2208 4.96355 6.5421 5.26473
56 1 -1.1104 0.86171 7.99839 0.991832
58 1 -1.1104 0.501748 7.76673 3.86464
60 1 -1.1104 0.792029 4.95941 0.953504
67 1 -1.1104 0.784383 5.02312 3.80544
71 1 -1.1104 3.48283 8.08003 0.974013
72 2 2.2208 2.13449 6.51816 2.31795
74 1 -1.1104 3.31228 7.93101 3.76491
76 1 -1.1104 3.41746 5.15856 0.941773
79 1 -1.1104 3.57757 4.9794 3.79539
63 1 -1.1104 6.45688 5.10884 0.946624
239 1 -1.1104 3.5947 5.07449 6.60295
69 1 -1.1104 6.2652 5.14272 3.64022
59 1 -1.1104 6.3932 7.78577 3.77809
57 1 -1.1104 6.36633 7.90979 1.03652
169 1 -1.1104 6.4288 2.38442 6.79293
235 1 -1.1104 6.45022 7.93608 6.53897
33 1 -1.1104 12.2675 1.93496 0.929956
35 1 -1.1104 12.005 2.19596 3.73084
41 1 -1.1104 9.45984 2.11035 0.994162
44 1 -1.1104 9.2756 2.06914 3.80608
46 2 2.2208 7.87225 3.56763 5.18539
38 2 2.2208 10.5766 3.61796 2.50929
209 1 -1.1104 9.28028 2.09718 6.61326
105 2 2.2208 13.5163 6.2436 2.37903
334 2 2.2208 13.5136 3.55887 5.10439
84 2 2.2208 10.7096 6.35683 5.31986
86 1 -1.1104 12.1066 7.67659 1.1549
87 1 -1.1104 12.1559 7.67737 3.73923
88 1 -1.1104 12.0539 4.7353 1.01617
92 1 -1.1104 12.0108 4.90317 3.87086
94 1 -1.1104 9.21971 7.80564 1.08265
95 2 2.2208 7.86139 6.49935 2.5029
97 1 -1.1104 9.33282 7.74922 3.88356
99 1 -1.1104 9.39755 5.05414 1.03763
102 1 -1.1104 9.16074 5.02882 3.73307
267 1 -1.1104 9.4099 7.8531 6.74801
237 1 -1.1104 6.39316 5.18942 6.4964
269 1 -1.1104 9.36388 4.97971 6.47205
266 1 -1.1104 12.15 5.00378 6.50698
371 2 2.2208 5.03837 14.7823 13.758
55 2 2.2208 4.97147 12.0284 5.11329
61 1 -1.1104 0.941352 10.7185 0.936573
66 2 2.2208 4.81551 9.25337 2.51198
68 1 -1.1104 0.618104 10.544 3.71299
73 2 2.2208 2.19655 12.0663 2.38174
75 2 2.2208 2.10261 9.29576 5.22452
77 1 -1.1104 3.75183 10.892 1.12604
80 1 -1.1104 3.48481 10.6736 3.80833
70 1 -1.1104 6.41265 10.7172 3.83605
64 1 -1.1104 6.70593 10.5911 1.07994
65 1 -1.1104 6.33121 10.581 6.72188
107 1 -1.1104 0.692468 13.4223 1.11075
113 1 -1.1104 0.760832 13.4137 3.90517
123 1 -1.1104 3.46387 13.5137 0.977002
128 1 -1.1104 3.48595 13.4977 3.67471
124 1 -1.1104 3.47771 13.3513 6.33065
110 1 -1.1104 6.53032 13.4675 1.15073
115 1 -1.1104 6.27048 13.5463 3.87299
78 1 -1.1104 3.61572 10.7605 6.74891
108 1 -1.1104 0.624861 13.4324 6.68855
51 2 2.2208 7.93626 -4.8655 2.34663
85 2 2.2208 10.5307 12.0732 5.15876
89 1 -1.1104 11.9842 10.5136 1.03162
91 2 2.2208 10.6061 9.06126 2.52671
93 1 -1.1104 11.9996 10.8166 3.87231
96 2 2.2208 7.82017 12.1368 2.44807
98 2 2.2208 7.85365 9.22668 5.3045
100 1 -1.1104 9.31347 10.7541 1.02534
103 1 -1.1104 9.27487 10.7141 3.74456
142 1 -1.1104 12.0502 13.4206 1.09946
146 1 -1.1104 11.9258 13.3961 3.86798
153 1 -1.1104 9.22502 13.4833 0.834756
158 1 -1.1104 9.22294 13.5136 3.87466
335 2 2.2208 13.5251 9.24438 5.09948
101 1 -1.1104 9.16374 10.553 6.6681
90 1 -1.1104 11.9086 10.6673 6.5315
143 1 -1.1104 12.2217 13.4485 6.8126
364 2 2.2208 10.7153 9.2144 13.7499
130 2 2.2208 2.26421 14.9193 5.08443
106 2 2.2208 5.07156 17.7046 5.2457
109 1 -1.1104 0.876403 18.9718 1.01858
114 1 -1.1104 0.752191 18.884 3.84197
116 1 -1.1104 0.790891 16.2027 1.06747
119 2 2.2208 4.98698 14.845 2.34198
120 2 2.2208 4.99591 20.4422 2.50731
121 1 -1.1104 0.730294 16.1819 3.86571
125 1 -1.1104 3.58633 19.0222 1.14153
127 2 2.2208 2.21536 17.5815 2.33717
129 1 -1.1104 3.76636 18.8233 3.87326
131 2 2.2208 2.02614 20.3285 5.33482
132 1 -1.1104 3.68562 16.2912 0.948629
134 1 -1.1104 3.58529 16.1157 3.74581
133 1 -1.1104 3.85562 16.3162 6.59329
138 1 -1.1104 6.21076 19.1702 0.944326
140 1 -1.1104 6.48087 16.2791 1.01701
122 1 -1.1104 6.39548 16.2911 3.83353
139 1 -1.1104 6.5736 19.1825 3.87013
327 1 -1.1104 11.8821 19.0994 9.46234
112 1 -1.1104 6.3439 18.968 6.82133
126 1 -1.1104 3.43642 19.0978 6.71773
150 2 2.2208 10.6223 14.832 2.35875
141 2 2.2208 10.7005 17.7457 5.17078
144 1 -1.1104 12.2502 19.1527 0.975941
147 1 -1.1104 12.0375 19.218 3.91311
148 1 -1.1104 12.1113 16.2614 1.0236
151 2 2.2208 10.6389 20.5004 2.23575
152 1 -1.1104 12.0275 16.2234 3.61008
155 1 -1.1104 9.30717 19.0339 0.902268
157 2 2.2208 7.85163 17.7736 2.27369
159 1 -1.1104 9.29605 19.199 3.6172
160 2 2.2208 7.79876 15.011 5.20036
161 2 2.2208 7.95009 20.3698 5.18713
162 1 -1.1104 9.22525 16.2646 0.893353
164 1 -1.1104 9.35684 16.3042 3.615
156 1 -1.1104 9.3868 19.2241 6.55145
163 1 -1.1104 9.17833 16.4758 6.29225
149 1 -1.1104 12.085 16.2865 6.51975
145 1 -1.1104 12.0888 19.0653 6.56921
337 2 2.2208 13.3186 14.8352 5.12361
321 1 -1.1104 9.12249 19.2288 12.2351
318 1 -1.1104 9.171 19.124 9.3425
356 2 2.2208 10.8266 -2.08247 13.8092
175 2 2.2208 5.23777 0.647969 10.9266
176 1 -1.1104 0.957853 -3.47932 12.1089
180 1 -1.1104 0.891889 -3.49197 9.29394
184 1 -1.1104 0.687745 -0.41371 12.2516
186 2 2.2208 5.05739 -1.96766 7.92597
188 1 -1.1104 0.973089 -0.646688 9.49541
190 1 -1.1104 3.85241 -3.38316 12.2116
192 2 2.2208 2.19528 0.739501 8.15434
193 1 -1.1104 3.62222 -3.40593 9.27556
195 2 2.2208 2.46479 -1.94437 10.9547
197 1 -1.1104 3.5533 -0.583533 12.3123
198 1 -1.1104 3.89204 -0.687762 9.53687
189 1 -1.1104 6.41649 -0.719389 9.29321
370 2 2.2208 13.5131 0.684421 13.793
178 1 -1.1104 6.61139 -3.28912 12.1937
185 1 -1.1104 6.40781 -0.662319 12.2557
182 1 -1.1104 6.54748 -3.59134 9.47174
53 2 2.2208 13.494 -4.77992 2.28065
398 2 2.2208 10.6443 6.34196 -0.496897
345 2 2.2208 13.5595 20.4452 10.759
336 2 2.2208 13.4973 20.4317 5.23628
365 2 2.2208 7.90096 11.9786 13.726
230 2 2.2208 13.3896 -1.95189 10.7785
208 1 -1.1104 9.095 -3.3598 6.65039
211 2 2.2208 10.6631 0.888153 10.8366
212 1 -1.1104 12.2862 -3.48427 12.1617
214 1 -1.1104 12.2136 -3.33659 9.34993
216 1 -1.1104 12.3764 -0.604512 12.3566
217 2 2.2208 10.8229 -2.06366 8.09409
219 1 -1.1104 11.8979 -0.701654 9.54388
220 1 -1.1104 9.35378 -3.28624 12.1979
222 2 2.2208 7.89808 0.804522 7.92992
223 1 -1.1104 9.33651 -3.37669 9.38856
225 2 2.2208 7.93806 -1.91403 10.8482
227 1 -1.1104 9.30134 -0.372264 12.3369
228 1 -1.1104 9.05248 -0.480847 9.46556
229 2 2.2208 13.4678 0.804364 7.98752
231 2 2.2208 7.81459 -4.8205 7.90916
339 2 2.2208 13.6788 6.3949 8.08879
167 1 -1.1104 0.837991 2.17577 6.73006
234 1 -1.1104 0.800131 7.84106 6.6108
381 2 2.2208 5.03743 0.716734 -0.374589
177 1 -1.1104 0.717637 2.40091 12.1142
181 1 -1.1104 0.853797 2.11942 9.50582
187 2 2.2208 5.08183 3.70197 7.92315
191 1 -1.1104 3.42739 2.25982 12.3409
194 1 -1.1104 3.64077 2.22743 9.38192
196 2 2.2208 2.42552 3.55408 10.8362
183 1 -1.1104 6.48258 2.00998 9.60157
179 1 -1.1104 6.45413 2.10173 12.2417
236 1 -1.1104 0.717609 5.22916 6.67025
238 1 -1.1104 3.58536 7.89594 6.65922
240 2 2.2208 5.0238 6.38557 10.9228
242 1 -1.1104 0.532429 7.72531 12.2504
244 1 -1.1104 0.755697 7.8088 9.42676
246 1 -1.1104 0.894005 5.02699 12.1423
251 1 -1.1104 0.981492 5.03813 9.37722
255 1 -1.1104 3.51555 7.8707 12.2334
256 2 2.2208 2.23732 6.41651 8.01025
258 1 -1.1104 3.6131 7.84166 9.48637
260 1 -1.1104 3.78995 4.98123 12.2664
262 1 -1.1104 3.84746 5.00341 9.50221
253 1 -1.1104 6.55022 5.13766 9.39107
243 1 -1.1104 6.45186 7.83179 12.4083
248 1 -1.1104 6.39726 4.97585 12.3376
245 1 -1.1104 6.22021 7.8433 9.75828
315 1 -1.1104 8.95517 16.3419 12.1769
392 2 2.2208 13.4707 3.51647 -0.501995
50 2 2.2208 13.4704 -2.00426 5.3286
206 1 -1.1104 12.0982 1.95506 6.61319
213 1 -1.1104 11.9407 2.1309 12.1798
215 1 -1.1104 12.2887 2.30769 9.27585
221 1 -1.1104 9.28855 2.13594 12.4062
224 1 -1.1104 9.5565 2.18546 9.35263
226 2 2.2208 7.83547 3.61593 10.6943
218 2 2.2208 10.7511 3.41196 7.82697
265 1 -1.1104 12.2243 8.0179 6.60477
268 1 -1.1104 9.43182 4.97353 9.23936
271 1 -1.1104 9.26279 4.86706 12.0025
273 1 -1.1104 9.14765 7.7981 9.41785
275 2 2.2208 7.90299 6.36699 7.95609
276 2 2.2208 10.4667 6.43176 10.8913
278 1 -1.1104 11.9866 7.76274 12.2066
279 1 -1.1104 11.9619 7.81659 9.55175
280 1 -1.1104 11.9399 5.02255 12.24
283 1 -1.1104 12.3633 5.05593 9.38258
285 1 -1.1104 9.16493 7.76102 12.3249
347 2 2.2208 2.24227 -4.97648 13.579
62 1 -1.1104 0.845924 10.5693 6.68523
324 2 2.2208 10.7022 20.447 7.98015
241 2 2.2208 4.95168 11.9798 10.7776
247 1 -1.1104 0.892726 10.6387 12.3662
250 2 2.2208 4.86658 9.30832 8.14948
252 1 -1.1104 0.898798 10.6038 9.29296
257 2 2.2208 2.2594 12.06 8.03653
259 2 2.2208 2.1815 9.18143 10.9743
261 1 -1.1104 3.60207 10.6373 12.2371
263 1 -1.1104 3.59649 10.6834 9.56514
254 1 -1.1104 6.47181 10.6207 9.5625
249 1 -1.1104 6.40816 10.7946 12.1404
297 1 -1.1104 6.26447 13.568 12.1797
305 1 -1.1104 3.70365 13.4265 9.38586
299 1 -1.1104 0.704441 13.3629 12.2949
294 1 -1.1104 0.882625 13.3905 9.62359
287 1 -1.1104 3.52032 13.4462 12.3062
290 1 -1.1104 6.34681 13.423 9.3895
111 1 -1.1104 6.38967 13.4429 6.44462
326 1 -1.1104 11.9598 16.2864 12.2991
376 2 2.2208 7.90343 17.8079 13.7734
317 2 2.2208 7.86578 14.7686 10.8458
165 2 2.2208 13.5437 17.7162 2.42718
314 1 -1.1104 9.14432 16.0591 9.20744
264 1 -1.1104 9.48837 10.5083 9.51603
270 1 -1.1104 9.23825 10.4935 12.4051
272 2 2.2208 7.86262 9.19354 10.9778
274 2 2.2208 7.88788 12.0626 7.9965
277 2 2.2208 10.6616 12.1056 10.8839
281 1 -1.1104 12.0243 10.6961 12.2511
282 2 2.2208 10.7459 9.16479 8.05569
284 1 -1.1104 12.3845 10.5377 9.44047
322 1 -1.1104 9.44296 13.4672 12.275
154 1 -1.1104 9.14631 13.5129 6.55785
328 1 -1.1104 12.0054 13.3928 9.44898
330 1 -1.1104 12.1268 13.3444 12.324
319 1 -1.1104 9.22982 13.4317 9.24747
323 1 -1.1104 11.9656 16.2424 9.49337
117 1 -1.1104 0.933971 16.2685 6.52961
118 1 -1.1104 6.54389 16.2463 6.83203
331 2 2.2208 10.4134 17.624 10.7514
302 1 -1.1104 0.618115 19.0651 6.74359
288 1 -1.1104 6.32681 19.0345 9.47002
295 2 2.2208 5.00477 14.8943 7.99276
309 2 2.2208 2.18213 20.4049 10.9212
308 1 -1.1104 3.5575 16.149 12.1426
307 1 -1.1104 0.72892 16.1328 12.173
304 1 -1.1104 3.7457 16.2349 9.22801
303 2 2.2208 2.15744 17.5791 8.09933
301 1 -1.1104 3.50763 19.1397 9.56176
300 2 2.2208 5.05375 17.5187 10.8655
298 1 -1.1104 0.605399 18.9632 12.3042
310 2 2.2208 2.1879 14.7194 10.9444
293 2 2.2208 4.84686 20.3733 8.11325
292 1 -1.1104 0.803725 16.0787 9.28639
291 1 -1.1104 0.75151 18.9737 9.66311
286 1 -1.1104 3.51166 18.8461 12.2327
306 1 -1.1104 6.33284 16.2506 12.736
329 1 -1.1104 11.8231 18.9697 12.03
289 1 -1.1104 6.46121 16.2192 9.78843
333 2 2.2208 13.5054 14.8824 10.8345
325 2 2.2208 10.7038 14.8846 7.89138
380 2 2.2208 13.4219 17.6839 13.5701
340 2 2.2208 13.5828 11.9077 8.0139
320 2 2.2208 7.78265 17.5957 8.19191
296 1 -1.1104 6.34251 19.1782 12.3279
316 2 2.2208 7.80296 20.5534 10.7562
393 2 2.2208 4.95751 6.49252 -0.324969
338 2 2.2208 13.4577 3.64953 10.8586
352 2 2.2208 5.04112 3.66487 13.774
353 2 2.2208 7.7345 -4.82978 13.5646
372 2 2.2208 10.5605 20.3807 13.5798
382 2 2.2208 2.22185 -1.95201 -0.262842
402 2 2.2208 13.489 9.15287 -0.307746
395 2 2.2208 5.12677 12.1294 -0.188643
399 2 2.2208 8.04132 9.12211 -0.28456
400 2 2.2208 10.7703 11.977 -0.452817
375 2 2.2208 13.6624 20.5924 -0.441542
362 2 2.2208 13.5593 11.8465 13.5779
379 2 2.2208 7.69472 20.5741 -0.395935
405 2 2.2208 2.28459 20.5615 -0.32639
391 2 2.2208 13.4797 -2.01708 -0.422835
406 2 2.2208 4.98834 0.79989 16.674
407 1 -1.1104 1.04781 -3.42581 17.7093
411 1 -1.1104 0.891458 -3.41841 15.0869
419 1 -1.1104 1.09562 -0.826351 18.3693
421 2 2.2208 5.11385 -1.91195 19.3416
423 1 -1.1104 0.93447 -0.49916 15.1563
427 1 -1.1104 3.76976 -3.29984 17.8297
429 2 2.2208 2.24374 0.766733 19.462
430 1 -1.1104 3.60722 -3.57021 14.9773
434 2 2.2208 2.35754 -2.00799 16.6097
436 1 -1.1104 3.69269 -0.607969 17.9993
437 1 -1.1104 3.70445 -0.775249 15.1752
420 1 -1.1104 6.36017 -0.598905 17.9137
409 1 -1.1104 6.5404 -3.32078 17.9594
415 1 -1.1104 6.45836 -3.38325 15.1459
580 2 2.2208 13.3175 14.7947 22.1327
438 1 -1.1104 3.59258 -0.474311 20.8853
412 1 -1.1104 1.04686 -3.41862 20.6585
425 1 -1.1104 6.40951 -0.533689 15.0103
416 1 -1.1104 6.6432 -3.22154 20.6046
669 2 2.2208 7.92123 -4.85033 24.8747
431 1 -1.1104 3.87755 -3.24849 20.6519
473 2 2.2208 13.4599 -4.88996 19.5585
449 2 2.2208 10.6783 0.659923 16.6077
450 1 -1.1104 12.2223 -3.51266 17.8411
452 1 -1.1104 11.981 -3.53812 14.89
456 1 -1.1104 12.2362 -0.628288 18.0236
457 2 2.2208 10.6392 -1.99737 19.1598
459 1 -1.1104 12.0422 -0.755734 15.2617
461 1 -1.1104 9.33495 -3.37852 17.8071
463 2 2.2208 7.77224 1.00904 19.3469
464 1 -1.1104 9.23764 -3.51648 15.0853
468 2 2.2208 7.88876 -2.04006 16.5101
470 1 -1.1104 9.18939 -0.589136 17.8913
471 1 -1.1104 9.34822 -0.770081 15.1213
460 1 -1.1104 12.0346 -0.493886 20.8223
453 1 -1.1104 12.087 -3.49161 20.8193
357 2 2.2208 10.6537 3.65027 13.5875
377 2 2.2208 7.97325 14.9665 27.6608
389 2 2.2208 7.75883 3.50545 27.7435
355 2 2.2208 7.86527 0.957639 13.6855
668 2 2.2208 10.6244 -4.82454 22.0162
472 1 -1.1104 9.17605 -0.519992 20.6016
666 2 2.2208 13.4909 -4.67362 24.8175
360 2 2.2208 5.06225 9.31998 13.5636
542 2 2.2208 13.4704 6.37735 19.2981
408 1 -1.1104 0.846224 2.02628 17.9952
413 1 -1.1104 0.942425 2.22674 15.0647
422 2 2.2208 4.92804 3.62163 19.1997
428 1 -1.1104 3.54863 2.02537 17.8918
432 1 -1.1104 3.75424 2.17577 15.0937
435 2 2.2208 2.27679 3.65511 16.3785
417 1 -1.1104 6.39273 2.19491 15.117
418 1 -1.1104 6.36229 2.25332 20.6508
410 1 -1.1104 6.39543 2.37572 17.9412
482 2 2.2208 4.94958 6.52732 16.5066
484 1 -1.1104 0.750949 7.74635 17.8219
486 1 -1.1104 0.78399 7.78488 15.1357
490 1 -1.1104 0.810565 4.92485 17.9479
495 1 -1.1104 0.854132 4.9839 15.0659
503 1 -1.1104 3.51501 7.8086 17.8396
504 2 2.2208 2.16971 6.43003 19.4043
506 1 -1.1104 3.64011 7.88268 15.0626
509 1 -1.1104 3.57592 5.02195 17.9176
511 1 -1.1104 3.64516 5.02955 15.2381
485 1 -1.1104 6.36966 7.80431 17.8703
507 1 -1.1104 3.513 7.86538 20.6785
487 1 -1.1104 0.840989 7.7572 20.6353
512 1 -1.1104 3.73025 4.92764 20.5993
488 1 -1.1104 6.49095 7.75787 15.2254
492 1 -1.1104 6.59539 5.00215 18.0471
414 1 -1.1104 0.753257 2.24978 20.9182
489 1 -1.1104 6.62674 7.84955 20.7451
500 1 -1.1104 6.51931 5.02076 20.7826
451 1 -1.1104 11.9404 2.01307 17.8633
454 1 -1.1104 11.9976 2.21024 14.9723
458 2 2.2208 10.799 3.67915 19.2559
462 1 -1.1104 9.32322 2.19814 18.1409
466 1 -1.1104 9.29049 2.10651 15.293
469 2 2.2208 7.77563 3.60346 16.6242
499 1 -1.1104 6.53934 5.0357 15.2846
518 2 2.2208 10.7841 6.41096 16.4607
520 1 -1.1104 12.1146 7.75938 17.9561
521 1 -1.1104 12.1835 7.86967 15.1843
523 1 -1.1104 12.1634 4.78747 17.8043
526 1 -1.1104 12.0295 4.92612 15.0388
530 1 -1.1104 9.22129 7.82631 17.9168
531 2 2.2208 7.87926 6.38064 19.235
533 1 -1.1104 9.25343 7.83017 15.1024
536 1 -1.1104 9.34171 5.01518 17.923
538 1 -1.1104 9.22452 4.93845 15.0817
522 1 -1.1104 12.0706 7.84425 20.7743
480 2 2.2208 13.4755 14.7431 16.5546
467 1 -1.1104 9.32683 2.29552 20.7902
534 1 -1.1104 9.25863 7.88839 20.62
663 1 -1.1104 12.1651 16.2906 26.3414
483 2 2.2208 4.87258 11.9669 16.5715
491 1 -1.1104 0.680678 10.3868 17.7832
494 2 2.2208 4.89441 9.1626 19.3808
497 1 -1.1104 0.778218 10.4755 14.9708
505 2 2.2208 2.07167 11.9011 19.4658
508 2 2.2208 2.05812 9.19984 16.4631
510 1 -1.1104 3.56528 10.5492 17.918
513 1 -1.1104 3.64809 10.7642 15.1072
501 1 -1.1104 6.33757 10.5345 15.0343
493 1 -1.1104 6.36669 10.5161 17.8632
502 1 -1.1104 6.44848 10.6789 20.7073
546 1 -1.1104 0.901297 13.0402 17.8911
550 1 -1.1104 0.838916 13.4509 15.1293
566 1 -1.1104 3.61831 13.2837 17.9142
569 1 -1.1104 3.6883 13.5127 15.0695
554 1 -1.1104 6.41659 13.205 15.0552
548 1 -1.1104 6.33062 13.2711 17.9719
551 1 -1.1104 0.703848 13.1803 20.8146
519 2 2.2208 10.6511 11.9876 16.4828
524 1 -1.1104 12.2104 10.7355 17.7995
525 2 2.2208 10.4673 9.21343 19.367
528 1 -1.1104 12.2922 10.5678 15.0283
532 2 2.2208 7.7656 12.0498 19.2387
535 2 2.2208 7.76218 9.28725 16.4159
537 1 -1.1104 9.3084 10.6291 17.8665
540 1 -1.1104 9.21869 10.6132 15.101
541 1 -1.1104 9.23573 10.8786 20.5975
582 1 -1.1104 11.9971 13.5378 17.9848
584 1 -1.1104 11.8554 13.3392 14.9936
593 1 -1.1104 9.21214 13.3868 17.907
596 1 -1.1104 9.02459 13.2456 15.0881
543 2 2.2208 13.5532 9.32166 16.4595
529 1 -1.1104 11.8513 10.773 20.6551
475 2 2.2208 7.7992 -4.77941 19.295
585 1 -1.1104 11.9384 13.5307 20.7596
479 2 2.2208 13.6234 17.7541 19.2532
573 2 2.2208 2.19841 14.7313 16.5897
545 2 2.2208 5.1214 17.5663 16.5686
547 1 -1.1104 0.787989 18.9417 17.9675
552 1 -1.1104 0.685662 18.9617 14.9191
558 1 -1.1104 0.790945 15.966 17.8172
560 2 2.2208 5.0248 14.7908 19.3721
561 2 2.2208 4.93684 20.3648 19.2175
562 1 -1.1104 0.772052 16.3669 15.165
567 1 -1.1104 3.68407 18.9519 17.8906
568 2 2.2208 2.09763 17.5978 19.2323
571 1 -1.1104 3.4252 19.1059 15.1514
574 2 2.2208 2.12984 20.5266 16.4917
575 1 -1.1104 3.62175 16.095 17.9172
576 1 -1.1104 3.51182 16.3268 15.1234
559 1 -1.1104 6.52595 16.1583 17.9233
549 1 -1.1104 6.298 19.0093 18.0696
556 1 -1.1104 6.49644 19.0736 15.2615
564 1 -1.1104 6.43226 16.1862 15.2301
577 1 -1.1104 3.58301 16.1858 20.8815
557 1 -1.1104 6.31652 19.2272 20.7864
565 1 -1.1104 6.36001 16.2855 20.7794
704 1 -1.1104 9.43516 16.3478 26.2995
581 2 2.2208 10.7455 17.5442 16.5421
583 1 -1.1104 12.0592 19.0109 17.8903
586 1 -1.1104 12.0961 18.97 14.9884
588 1 -1.1104 12.1994 16.1555 17.9002
589 2 2.2208 10.6328 14.8112 19.3318
590 2 2.2208 10.6741 20.4485 19.2344
591 1 -1.1104 12.2643 16.2066 15.136
594 1 -1.1104 9.45556 18.9092 18.0103
595 2 2.2208 7.96244 17.5522 19.2232
598 1 -1.1104 9.28796 19.0077 15.1774
600 2 2.2208 7.81874 14.8499 16.5779
601 2 2.2208 7.96013 20.4109 16.5327
602 1 -1.1104 9.3364 16.0898 17.7756
603 1 -1.1104 9.49183 16.324 14.9554
671 2 2.2208 13.5453 -1.94352 21.9654
606 2 2.2208 13.6053 20.4765 22.1666
478 2 2.2208 13.4689 20.4005 16.3953
424 1 -1.1104 0.740895 -0.688082 20.8894
517 2 2.2208 13.3824 12.1099 19.3104
728 2 2.2208 13.4225 6.45543 24.9195
609 2 2.2208 4.98547 0.989568 21.9557
610 1 -1.1104 0.72864 -3.48148 23.4928
614 1 -1.1104 0.80393 -3.36769 26.4689
618 1 -1.1104 0.817058 -0.670111 23.6143
620 2 2.2208 5.01764 -1.99984 24.8952
622 1 -1.1104 0.867288 -0.632057 26.4899
624 1 -1.1104 3.39678 -3.39783 23.4359
626 2 2.2208 2.26079 0.675686 24.871
627 1 -1.1104 3.5776 -3.37674 26.4155
629 2 2.2208 2.17937 -1.9834 22.1105
631 1 -1.1104 3.65017 -0.762523 23.4854
632 1 -1.1104 3.67628 -0.626261 26.3234
616 1 -1.1104 6.50062 -3.32864 26.2924
623 1 -1.1104 6.62678 -0.80614 26.2691
612 1 -1.1104 6.16104 -3.47894 23.3671
619 1 -1.1104 6.39472 -0.480767 23.4786
426 1 -1.1104 6.36167 -0.45078 20.6321
477 2 2.2208 13.6987 -2.2906 16.5464
665 1 -1.1104 9.42425 19.2423 23.4093
578 2 2.2208 13.7026 0.727949 19.2709
672 2 2.2208 13.419 0.811867 24.7944
368 2 2.2208 2.17307 17.6594 13.577
465 1 -1.1104 9.18981 -3.41279 20.6633
639 2 2.2208 4.8971 -4.73897 22.1751
645 2 2.2208 10.6462 0.880622 22.019
646 1 -1.1104 12.0046 -3.61063 23.3445
648 1 -1.1104 12.0885 -3.47936 26.1025
650 1 -1.1104 12.0626 -0.634515 23.474
651 2 2.2208 10.6878 -1.95622 24.8832
653 1 -1.1104 12.1753 -0.755336 26.3159
654 1 -1.1104 9.25878 -3.29835 23.5977
656 2 2.2208 7.88095 0.693295 24.9644
657 1 -1.1104 9.18442 -3.62986 26.4766
659 2 2.2208 7.66322 -1.84993 22.1015
661 1 -1.1104 9.19036 -0.519725 23.5681
662 1 -1.1104 9.27866 -0.663601 26.198
403 2 2.2208 2.21557 14.7768 27.814
387 2 2.2208 10.685 0.831172 27.8627
496 1 -1.1104 0.785645 5.07002 20.9244
633 1 -1.1104 12.226 19.0638 23.5384
433 1 -1.1104 3.46078 2.23579 20.6674
611 1 -1.1104 0.872902 2.26617 23.6081
615 1 -1.1104 0.777522 2.24662 26.2313
621 2 2.2208 5.09613 3.62529 24.8406
625 1 -1.1104 3.49998 1.98682 23.3839
628 1 -1.1104 3.67323 2.15432 26.1078
630 2 2.2208 2.13766 3.59265 22.2262
613 1 -1.1104 6.56238 2.22329 23.5574
617 1 -1.1104 6.33503 2.01046 26.3799
674 2 2.2208 5.09739 6.43346 22.1375
676 1 -1.1104 0.856491 7.88604 23.7146
678 1 -1.1104 0.84099 7.78944 26.3682
680 1 -1.1104 0.762141 5.16411 23.4871
685 1 -1.1104 0.894366 5.17374 26.2349
689 1 -1.1104 3.66716 7.88077 23.3984
690 2 2.2208 2.33959 6.47012 24.7394
692 1 -1.1104 3.65731 8.08281 26.1103
694 1 -1.1104 3.66127 4.91815 23.4936
696 1 -1.1104 3.84656 5.0477 26.352
677 1 -1.1104 6.28552 7.69221 23.5272
679 1 -1.1104 6.52169 7.75494 26.325
682 1 -1.1104 6.38952 4.91704 23.3884
636 1 -1.1104 12.2416 16.2199 23.5131
446 2 2.2208 13.5987 3.67662 22.2256
539 1 -1.1104 9.3725 5.06159 20.6367
455 1 -1.1104 12.3237 2.49044 20.4931
647 1 -1.1104 11.987 2.173 23.4874
649 1 -1.1104 11.7679 2.10021 26.3016
652 2 2.2208 10.5765 3.53235 24.9341
655 1 -1.1104 9.34241 2.23554 23.4193
658 1 -1.1104 9.03729 2.17959 26.371
660 2 2.2208 7.8176 3.52345 22.0763
687 1 -1.1104 6.42904 4.95849 26.3088
527 1 -1.1104 12.1157 5.07757 20.699
706 1 -1.1104 9.17294 4.99306 26.2026
708 1 -1.1104 9.18838 4.9941 23.451
710 1 -1.1104 9.4082 7.85439 26.3631
712 2 2.2208 7.89785 6.30071 24.8557
713 2 2.2208 10.6755 6.40551 22.0959
715 1 -1.1104 12.0923 7.86111 23.6104
716 1 -1.1104 12.1042 7.80983 26.5237
717 1 -1.1104 12.0245 5.02315 23.5743
720 1 -1.1104 11.8635 5.09143 26.3515
722 1 -1.1104 9.24046 7.75784 23.4332
361 2 2.2208 2.24307 12.1462 13.6429
701 1 -1.1104 9.35987 16.4293 23.4847
498 1 -1.1104 0.73081 10.6344 20.7182
641 2 2.2208 10.7049 20.4747 24.8384
514 1 -1.1104 3.61997 10.6569 20.8812
675 2 2.2208 5.07511 12.0501 22.1966
681 1 -1.1104 0.971924 10.7622 23.4946
684 2 2.2208 5.15358 9.31945 25.0555
686 1 -1.1104 0.74087 10.6748 26.2307
691 2 2.2208 2.32476 12.2219 24.982
693 2 2.2208 2.32515 9.35695 22.206
695 1 -1.1104 3.65788 10.7365 23.759
697 1 -1.1104 3.74128 10.8009 26.4261
688 1 -1.1104 6.49778 10.7053 26.4291
683 1 -1.1104 6.49444 10.6652 23.5629
570 1 -1.1104 3.63176 13.2909 20.7541
739 1 -1.1104 6.61563 13.5334 23.7461
746 1 -1.1104 3.59259 13.4946 26.4347
731 1 -1.1104 3.70587 13.4715 23.5015
735 1 -1.1104 0.676803 13.377 26.5024
741 1 -1.1104 0.96951 13.4866 23.7497
555 1 -1.1104 6.20983 13.686 20.8904
730 1 -1.1104 6.4326 13.5758 26.6713
699 2 2.2208 7.91199 14.9733 22.2384
726 2 2.2208 13.5364 11.9948 24.9194
698 1 -1.1104 9.38396 19.2519 26.3452
445 2 2.2208 13.3954 9.1907 22.1148
673 1 -1.1104 9.6053 13.459 26.2741
705 1 -1.1104 9.11187 10.6125 26.3661
707 1 -1.1104 9.29307 10.6295 23.5451
709 2 2.2208 7.90491 9.38271 22.0368
711 2 2.2208 7.94334 12.1479 24.9485
714 2 2.2208 10.5898 12.0352 22.1151
718 1 -1.1104 12.0796 10.5586 23.5546
719 2 2.2208 10.6804 9.16505 24.9282
721 1 -1.1104 12.1985 10.6322 26.3632
597 1 -1.1104 9.09261 13.5253 20.7847
664 1 -1.1104 9.17673 13.5195 23.4606
634 1 -1.1104 12.1655 13.3868 26.5441
608 1 -1.1104 11.8781 13.4221 23.6275
607 2 2.2208 10.6919 17.8647 22.0002
553 1 -1.1104 0.616313 18.9212 20.5731
572 1 -1.1104 3.39059 18.9876 20.5798
700 2 2.2208 7.85652 20.6251 22.0482
563 1 -1.1104 0.811599 16.1287 20.7791
670 1 -1.1104 6.46193 19.1091 26.4017
736 1 -1.1104 6.68292 19.3135 23.6589
743 1 -1.1104 3.77587 19.2024 26.4876
748 1 -1.1104 0.576806 16.2335 23.5765
745 1 -1.1104 3.60433 16.3647 26.3742
744 2 2.2208 2.14214 17.4599 24.913
750 2 2.2208 2.3258 20.532 22.1255
749 1 -1.1104 3.63589 16.1148 23.6699
727 2 2.2208 2.14127 14.7534 22.1932
729 1 -1.1104 3.51401 19.0265 23.5403
733 1 -1.1104 0.99601 19.019 26.3362
734 1 -1.1104 0.844822 16.187 26.3603
737 2 2.2208 5.09859 20.5916 24.993
738 2 2.2208 5.13141 14.7744 25.0596
740 1 -1.1104 0.850231 19.1479 23.4405
742 2 2.2208 4.96482 17.6549 22.3685
747 1 -1.1104 6.4579 16.4934 23.7401
732 1 -1.1104 6.61862 16.1774 26.3319
635 1 -1.1104 12.1823 19.0656 26.3421
579 2 2.2208 13.4636 3.55242 16.3474
638 2 2.2208 10.8729 14.9993 24.9264
667 2 2.2208 7.85155 17.7568 25.1675
599 1 -1.1104 9.2162 18.8972 20.7583
592 1 -1.1104 12.1404 16.2217 20.7375
587 1 -1.1104 12.2139 19.1111 20.614
604 1 -1.1104 9.23186 16.2401 20.4968
369 2 2.2208 4.99108 20.4134 13.6379
349 2 2.2208 2.31211 0.789932 13.617
378 2 2.2208 10.8865 17.7575 27.7453
388 2 2.2208 7.9549 -2.00762 27.7722
366 2 2.2208 13.4754 6.30191 13.6641
390 2 2.2208 10.6201 -4.92535 27.5878
359 2 2.2208 2.07295 6.50297 13.6807
394 2 2.2208 2.23029 9.43936 27.6951
385 2 2.2208 5.0812 -4.83579 27.5372
363 2 2.2208 7.86483 6.50316 13.7701
383 2 2.2208 2.22432 3.67506 27.6804
373 2 2.2208 10.8076 14.8049 13.7671
404 2 2.2208 4.98835 17.6061 27.6794
348 2 2.2208 5.11419 -2.18031 13.7689
751 2 2.2208 4.99222 23.2522 5.23478
753 1 -1.1104 1.00043 24.8203 1.04911
754 1 -1.1104 0.543403 24.6657 3.81824
755 1 -1.1104 0.891297 21.8309 1.13485
757 2 2.2208 4.97357 26.1179 2.41923
758 1 -1.1104 0.737605 21.8717 3.80741
760 1 -1.1104 3.69537 24.7714 0.944237
761 2 2.2208 2.23039 23.342 2.44776
763 1 -1.1104 3.60155 24.6527 3.81299
764 2 2.2208 2.33374 26.108 5.22794
765 1 -1.1104 3.65039 22.0528 1.11073
767 1 -1.1104 3.44064 21.6924 3.74961
768 1 -1.1104 3.7428 27.5212 3.81386
759 1 -1.1104 1.08913 27.5092 3.72518
766 1 -1.1104 3.87595 27.5707 1.08758
899 1 -1.1104 3.69581 21.8455 6.69531
895 1 -1.1104 0.949597 27.4834 6.48796
774 1 -1.1104 6.26289 21.9962 1.031
775 1 -1.1104 6.64711 27.5046 0.939201
772 1 -1.1104 6.49941 24.7634 1.03234
1048 1 -1.1104 9.47815 41.5726 9.35676
898 1 -1.1104 3.60449 24.8812 6.67891
894 1 -1.1104 1.04276 21.8593 6.82162
900 1 -1.1104 3.74026 27.7547 6.5818
1076 2 2.2208 13.4549 34.5102 8.13918
1894 3 0 11.6176 47.0685 11.0982
773 1 -1.1104 6.38558 24.909 3.68603
776 1 -1.1104 6.3438 21.9884 3.86985
777 1 -1.1104 6.41072 27.7901 3.74858
778 2 2.2208 10.578 23.2199 5.17901
780 1 -1.1104 12.2501 24.8796 1.12657
781 1 -1.1104 12.101 24.5775 3.96687
782 1 -1.1104 12.012 22.2243 1.08787
784 2 2.2208 10.7069 26.0009 2.4078
785 1 -1.1104 12.0318 21.9582 3.67992
787 1 -1.1104 9.38871 24.5518 1.02859
788 2 2.2208 7.70666 23.3146 2.38126
790 1 -1.1104 9.30722 24.5837 3.74794
791 2 2.2208 7.83445 26.1291 5.09169
792 1 -1.1104 9.1046 21.7395 0.912215
793 1 -1.1104 9.22849 27.3962 0.993842
794 1 -1.1104 9.0885 21.8751 3.75525
783 1 -1.1104 12.0877 27.6899 0.99731
795 1 -1.1104 9.31798 27.4648 3.82077
786 1 -1.1104 12.0213 27.4377 3.648
930 1 -1.1104 9.19646 27.4587 6.47085
927 1 -1.1104 12.2307 27.4068 6.58734
926 1 -1.1104 12.0387 21.8398 6.59934
929 1 -1.1104 9.31791 21.8094 6.60521
756 1 -1.1104 0.895937 27.6217 0.945485
752 2 2.2208 4.9951 28.91 5.14014
762 2 2.2208 2.42671 29.0116 2.33352
800 1 -1.1104 0.78945 30.3753 1.04508
803 1 -1.1104 0.723697 30.5191 3.93701
806 1 -1.1104 0.901232 33.2548 0.901076
807 2 2.2208 5.06777 31.8947 2.54865
809 1 -1.1104 0.780539 33.2729 3.66107
811 1 -1.1104 3.55884 30.4428 0.983188
814 1 -1.1104 3.80772 30.2972 3.83927
816 2 2.2208 2.21949 31.6874 5.26702
818 1 -1.1104 3.701 33.2165 1.10998
819 1 -1.1104 3.698 33.0955 4.03805
824 1 -1.1104 6.47707 30.4382 3.95865
810 1 -1.1104 6.35621 33.3947 4.08454
954 1 -1.1104 6.41934 33.1561 6.79579
953 1 -1.1104 1.01169 33.1065 6.59256
1484 1 -1.1104 6.31912 47.1549 3.99089
779 2 2.2208 10.6928 28.7397 5.13497
789 2 2.2208 7.95114 28.912 2.2985
823 1 -1.1104 6.58798 30.2066 0.900345
825 1 -1.1104 6.34251 33.0433 1.19745
827 1 -1.1104 12.1877 30.4771 1.1157
829 1 -1.1104 12.1277 30.1438 3.76637
831 1 -1.1104 11.8021 33.1205 0.975288
832 2 2.2208 10.6186 31.6816 2.44622
834 1 -1.1104 12.0675 32.9788 3.71851
835 1 -1.1104 9.39518 30.2048 0.916131
838 1 -1.1104 9.34928 30.2409 3.74432
840 2 2.2208 7.80649 31.609 5.32871
842 1 -1.1104 9.0736 33.2129 0.921899
843 1 -1.1104 9.08451 32.9858 3.80107
1477 1 -1.1104 0.861865 47.1574 0.807269
891 2 2.2208 13.4344 40.3106 2.35827
1072 2 2.2208 13.3909 23.3792 7.95085
799 2 2.2208 5.05537 34.7573 5.44267
801 1 -1.1104 0.876029 36.1716 0.928356
804 1 -1.1104 0.797772 36.0431 3.97613
808 2 2.2208 4.99808 37.4656 2.36962
812 1 -1.1104 3.58196 35.8748 0.868336
813 2 2.2208 2.24143 34.7712 2.40328
815 1 -1.1104 3.54114 36.0689 3.76506
817 2 2.2208 2.27726 37.4725 5.2612
805 1 -1.1104 6.1398 36.2663 3.87515
802 1 -1.1104 6.31182 35.871 0.878402
865 1 -1.1104 3.38222 38.7596 1.01817
867 1 -1.1104 3.78386 38.8542 3.75453
845 2 2.2208 4.99609 40.1835 5.17517
851 1 -1.1104 0.783511 39.122 1.04596
856 1 -1.1104 0.982338 38.9796 3.82296
861 2 2.2208 2.17714 40.3404 2.42722
1023 1 -1.1104 0.854583 38.9405 6.59947