ITEM: TIMESTEP
40000
ITEM: NUMBER OF ATOMS
17732
ITEM: BOX BOUNDS pp pp pp
-4.0475411645894604e-01 2.7744754116459731e+01
-4.9752905724390590e+00 3.3305529057243740e+02
-4.0817650178414067e-01 2.7748176501784013e+01
ITEM: ATOMS id type q x y z
1 2 2.2208 4.59091 0.677756 5.20279
2 1 -1.1104 0.27353 -3.35998 1.15016
6 1 -1.1104 0.535924 -3.72443 3.83829
10 1 -1.1104 0.417328 -0.70287 1.00526
12 2 2.2208 4.79228 -2.11114 2.24584
14 1 -1.1104 0.574835 -0.81726 3.88926
16 1 -1.1104 3.35395 -3.47682 0.984426
18 2 2.2208 1.9397 0.694277 2.54117
19 1 -1.1104 3.42225 -3.58109 3.73138
21 2 2.2208 2.00881 -2.2252 5.13501
23 1 -1.1104 3.50383 -0.767143 1.03307
24 1 -1.1104 3.1074 -0.71461 3.85366
15 1 -1.1104 6.00787 -0.690792 3.66736
8 1 -1.1104 6.24005 -3.58774 3.82271
11 1 -1.1104 6.40323 -0.741645 0.616485
4 1 -1.1104 6.16385 -3.76873 1.22872
170 1 -1.1104 0.417991 -0.804038 6.78734
3 1 -1.1104 0.676116 1.98788 0.947933
7 1 -1.1104 0.486775 1.9636 3.80169
17 1 -1.1104 3.41062 1.95649 1.09474
20 1 -1.1104 3.23816 2.13483 3.91848
22 2 2.2208 1.86773 3.51708 5.1092
13 2 2.2208 4.80987 3.44667 2.38663
9 1 -1.1104 6.12295 1.94672 3.72556
5 1 -1.1104 6.12958 2.13332 0.808236
174 1 -1.1104 3.2331 -0.779043 6.44191
172 1 -1.1104 3.30492 -3.57004 6.66042
168 1 -1.1104 6.33414 -3.57984 6.64353
329 1 -1.1104 11.8871 18.8477 12.149
167 1 -1.1104 0.576531 1.89691 6.63248
233 2 2.2208 13.2472 -4.98038 7.9283
31 2 2.2208 10.5307 0.676943 5.1737
32 1 -1.1104 11.9424 -3.57007 0.910191
34 1 -1.1104 11.8089 -3.40024 3.85034
36 1 -1.1104 11.6262 -0.596864 1.14723
37 2 2.2208 10.5011 -2.16711 2.50857
39 1 -1.1104 12.1136 -0.642767 3.82312
40 1 -1.1104 9.14609 -3.63496 1.08277
42 2 2.2208 7.6881 0.488594 2.38285
43 1 -1.1104 9.00728 -3.58674 3.96042
45 2 2.2208 7.62523 -2.23914 5.16597
47 1 -1.1104 9.02678 -0.759043 0.90708
48 1 -1.1104 9.07954 -0.769522 3.78523
50 2 2.2208 13.2827 -1.94275 5.15839
210 1 -1.1104 8.84678 -0.657749 6.44005
49 2 2.2208 13.1521 0.758656 2.44582
33 1 -1.1104 11.6845 2.14784 0.876027
35 1 -1.1104 11.6238 2.07763 3.68161
38 2 2.2208 10.4205 3.59588 2.38515
41 1 -1.1104 8.93578 2.07969 0.853707
44 1 -1.1104 9.02004 2.03747 3.75145
46 2 2.2208 7.56177 3.3968 5.10372
334 2 2.2208 13.0999 3.52455 5.08286
209 1 -1.1104 8.83614 2.11119 6.6112
232 2 2.2208 10.476 -4.91211 10.6835
207 1 -1.1104 11.7293 -0.747882 6.59075
206 1 -1.1104 11.6762 2.09552 6.6154
347 2 2.2208 1.99571 -4.95328 13.6217
355 2 2.2208 7.5541 0.755813 13.737
54 2 2.2208 4.67372 6.1674 5.12436
56 1 -1.1104 0.730771 7.64849 0.989327
58 1 -1.1104 0.54213 7.86021 3.61181
60 1 -1.1104 0.553421 4.70734 0.767757
67 1 -1.1104 0.536642 4.86821 3.71151
71 1 -1.1104 3.46459 7.64505 0.765878
72 2 2.2208 2.00553 6.2573 2.28856
74 1 -1.1104 3.30002 7.67905 3.704
76 1 -1.1104 3.3387 4.90147 0.928817
79 1 -1.1104 3.35971 4.98781 3.64204
234 1 -1.1104 0.467648 7.44564 6.50321
57 1 -1.1104 6.2638 7.55272 0.792464
63 1 -1.1104 6.14598 4.88207 0.88
59 1 -1.1104 6.23511 7.62616 3.79272
237 1 -1.1104 6.05671 4.80911 6.54249
236 1 -1.1104 0.352696 4.72124 6.6276
69 1 -1.1104 6.08081 4.76427 3.78607
55 2 2.2208 4.92525 11.9006 5.11499
61 1 -1.1104 0.573999 10.5923 1.14668
66 2 2.2208 4.77977 9.15025 2.373
68 1 -1.1104 0.6248 10.5725 3.937
73 2 2.2208 2.17351 11.8486 2.43234
75 2 2.2208 2.02361 8.99185 5.18088
77 1 -1.1104 3.30314 10.3731 1.1157
80 1 -1.1104 3.47761 10.4421 3.79136
78 1 -1.1104 3.37954 10.5532 6.53168
70 1 -1.1104 6.17022 10.5254 3.90052
64 1 -1.1104 6.22969 10.3413 0.756981
65 1 -1.1104 6.47804 10.5904 6.53964
238 1 -1.1104 3.34061 7.69621 6.58011
239 1 -1.1104 3.4338 4.86281 6.43098
235 1 -1.1104 6.00765 7.61084 6.58858
62 1 -1.1104 0.630464 10.3176 6.78371
104 2 2.2208 13.3373 12.0157 2.42782
105 2 2.2208 13.1976 6.26089 2.38435
84 2 2.2208 10.3144 6.28075 5.34128
86 1 -1.1104 11.8029 7.63347 0.923586
87 1 -1.1104 11.8999 7.74896 3.74628
88 1 -1.1104 11.7958 4.90013 1.08388
92 1 -1.1104 11.7242 4.86946 3.77734
94 1 -1.1104 9.03273 7.88877 0.967028
95 2 2.2208 7.64551 6.3452 2.33052
97 1 -1.1104 8.99678 7.62368 3.8824
99 1 -1.1104 9.08128 5.04362 0.946604
102 1 -1.1104 8.86707 4.90082 3.55216
269 1 -1.1104 8.87976 4.76925 6.40078
265 1 -1.1104 11.5524 7.61635 6.50623
85 2 2.2208 10.5672 11.9184 5.16624
89 1 -1.1104 11.9369 10.4513 1.17028
91 2 2.2208 10.3959 9.17575 2.51095
93 1 -1.1104 11.7625 10.6115 3.90142
96 2 2.2208 7.74724 11.9983 2.42385
98 2 2.2208 7.56814 9.06975 5.14046
100 1 -1.1104 9.14874 10.635 0.90232
103 1 -1.1104 9.02582 10.5954 3.73507
90 1 -1.1104 11.9972 10.4049 6.69137
335 2 2.2208 13.3941 8.96598 5.20714
266 1 -1.1104 11.6479 4.79206 6.58902
107 1 -1.1104 0.770113 13.3089 1.10633
113 1 -1.1104 0.722632 13.3073 3.86349
123 1 -1.1104 3.51127 13.1941 1.01713
128 1 -1.1104 3.46079 13.4081 3.69714
115 1 -1.1104 6.21207 13.3324 3.68983
130 2 2.2208 2.16474 14.7206 5.13979
110 1 -1.1104 6.23119 13.2993 0.857733
106 2 2.2208 5.06659 17.4317 5.15765
109 1 -1.1104 0.673818 18.9096 0.862242
114 1 -1.1104 0.709893 18.9289 3.74088
116 1 -1.1104 0.761461 16.2442 0.868459
119 2 2.2208 4.80807 14.7681 2.27365
120 2 2.2208 4.92054 20.3401 2.48251
121 1 -1.1104 0.82128 16.153 3.85515
125 1 -1.1104 3.4147 19.1016 1.02433
127 2 2.2208 2.16154 17.6714 2.38252
129 1 -1.1104 3.55421 18.9805 3.73839
131 2 2.2208 2.00573 20.3395 5.19118
132 1 -1.1104 3.57462 16.2567 0.974668
134 1 -1.1104 3.55068 16.0576 3.70445
302 1 -1.1104 0.872865 18.9509 6.58433
138 1 -1.1104 6.211 19.0565 0.735237
139 1 -1.1104 6.30858 18.8749 3.70094
122 1 -1.1104 6.3717 16.1892 3.83662
140 1 -1.1104 6.35547 16.1542 0.945712
118 1 -1.1104 6.39233 16.2095 6.52236
117 1 -1.1104 0.809238 16.1311 6.61063
112 1 -1.1104 6.3702 18.9834 6.6434
108 1 -1.1104 0.703869 13.1051 6.48111
126 1 -1.1104 3.67091 18.8022 6.43604
133 1 -1.1104 3.59865 16.1943 6.57637
319 1 -1.1104 9.05833 13.3901 9.61188
142 1 -1.1104 11.8878 13.2489 1.11866
146 1 -1.1104 11.892 13.345 3.86731
153 1 -1.1104 9.07955 13.2849 1.11427
158 1 -1.1104 9.19338 13.4189 3.85844
154 1 -1.1104 9.13851 13.0557 6.84677
143 1 -1.1104 11.958 13.2961 6.61878
337 2 2.2208 13.4388 14.6303 5.43383
150 2 2.2208 10.5418 14.7625 2.40073
141 2 2.2208 10.4042 17.4656 5.21637
144 1 -1.1104 11.9341 18.7883 1.01621
147 1 -1.1104 11.8313 18.9038 3.93249
148 1 -1.1104 12.1165 16.0649 1.08593
151 2 2.2208 10.6689 20.3284 2.38364
152 1 -1.1104 11.9061 16.0718 3.90606
155 1 -1.1104 9.13304 18.9614 1.0105
157 2 2.2208 7.81329 17.45 2.20663
159 1 -1.1104 8.95437 18.987 3.69305
160 2 2.2208 7.75997 14.6804 5.16339
161 2 2.2208 7.71473 20.4076 5.06816
162 1 -1.1104 9.08317 16.155 0.811744
164 1 -1.1104 9.10808 16.2885 3.62303
156 1 -1.1104 9.08354 18.868 6.77109
145 1 -1.1104 11.9087 19.0383 6.58375
336 2 2.2208 13.4246 20.1845 5.28053
165 2 2.2208 13.2984 17.4215 2.63488
171 1 -1.1104 6.10796 -0.845602 6.48151
166 1 -1.1104 0.401447 -3.54579 6.71571
173 1 -1.1104 3.23745 2.07057 6.66738
175 2 2.2208 4.75343 0.753779 10.8579
176 1 -1.1104 0.596183 -3.59292 12.2824
180 1 -1.1104 0.599358 -3.7064 9.51656
184 1 -1.1104 0.509136 -0.890699 12.217
186 2 2.2208 4.83427 -2.18076 7.9577
188 1 -1.1104 0.433671 -0.798253 9.39935
190 1 -1.1104 3.42218 -3.60421 12.1681
192 2 2.2208 1.96724 0.775987 8.10823
193 1 -1.1104 3.56092 -3.50522 9.48673
195 2 2.2208 1.90535 -2.26718 10.7904
197 1 -1.1104 3.24491 -0.814835 12.2381
198 1 -1.1104 3.5262 -0.643704 9.3627
182 1 -1.1104 6.44107 -3.77289 9.38724
178 1 -1.1104 6.26087 -3.70414 12.3135
189 1 -1.1104 6.25231 -0.882558 9.394
185 1 -1.1104 6.03845 -0.696698 12.3662
177 1 -1.1104 0.516025 2.04697 12.2875
181 1 -1.1104 0.413504 2.12245 9.37531
187 2 2.2208 4.82277 3.44877 7.96516
191 1 -1.1104 3.51459 1.78393 12.2495
194 1 -1.1104 3.15261 2.12422 9.48126
196 2 2.2208 1.79628 3.45258 10.8158
169 1 -1.1104 6.07225 2.10766 6.4699
179 1 -1.1104 6.3588 2.20403 12.1784
183 1 -1.1104 6.05193 2.12218 9.34908
320 2 2.2208 7.63788 17.3664 8.10712
51 2 2.2208 7.74886 -4.87068 2.57597
405 2 2.2208 1.95484 20.2156 -0.327388
52 2 2.2208 10.3867 -5.01449 5.22253
205 1 -1.1104 11.6655 -3.63483 6.62294
324 2 2.2208 10.3381 20.2836 7.99036
338 2 2.2208 13.2287 3.34406 10.8419
208 1 -1.1104 9.1974 -3.57026 6.54501
211 2 2.2208 10.3472 0.55778 10.7034
212 1 -1.1104 11.8876 -3.4275 12.3538
214 1 -1.1104 11.9306 -3.61642 9.47505
216 1 -1.1104 11.4333 -0.763941 12.233
217 2 2.2208 10.3432 -2.05738 7.81208
219 1 -1.1104 11.9366 -0.696773 9.46222
220 1 -1.1104 8.97401 -3.37002 12.13
222 2 2.2208 7.54129 0.626121 7.88609
223 1 -1.1104 9.05763 -3.58971 9.3311
225 2 2.2208 7.61022 -2.25579 10.8086
227 1 -1.1104 8.63164 -0.678983 12.1096
228 1 -1.1104 8.99482 -0.732293 9.24803
229 2 2.2208 13.1846 0.698191 8.03924
230 2 2.2208 13.2057 -2.21173 10.8049
213 1 -1.1104 11.899 2.01731 12.2958
215 1 -1.1104 11.6793 2.05744 9.47167
221 1 -1.1104 9.05156 1.94188 12.2661
224 1 -1.1104 8.93583 1.97807 9.3852
226 2 2.2208 7.72019 3.53599 10.8491
218 2 2.2208 10.4005 3.45709 7.96923
330 1 -1.1104 12.0125 13.362 12.2892
375 2 2.2208 13.469 20.1176 -0.377356
390 2 2.2208 10.5412 -5.033 -0.384775
318 1 -1.1104 8.71636 18.6447 9.51181
240 2 2.2208 4.74888 6.16646 10.8244
242 1 -1.1104 0.573397 7.47321 12.3263
244 1 -1.1104 0.474911 7.78524 9.34726
246 1 -1.1104 0.260292 4.76381 12.1172
251 1 -1.1104 0.654629 4.78811 9.35607
255 1 -1.1104 3.61048 7.718 12.226
256 2 2.2208 1.90168 6.18559 7.98162
258 1 -1.1104 3.37043 7.67111 9.40305
260 1 -1.1104 3.45352 4.69684 12.0598
262 1 -1.1104 3.47118 4.81623 9.35831
243 1 -1.1104 6.22664 7.67511 12.2135
253 1 -1.1104 6.21639 4.95437 9.73236
248 1 -1.1104 6.13618 4.87891 12.4477
245 1 -1.1104 6.12808 7.66399 9.37108
241 2 2.2208 4.87939 11.8119 11.0356
247 1 -1.1104 0.530929 10.2551 12.1238
250 2 2.2208 4.82285 9.01201 7.94276
252 1 -1.1104 0.625873 10.4665 9.47618
257 2 2.2208 2.14979 11.882 7.93494
259 2 2.2208 2.11786 9.08196 10.8183
261 1 -1.1104 3.46617 10.532 12.4219
263 1 -1.1104 3.40959 10.4521 9.45018
249 1 -1.1104 6.40235 10.3044 12.2334
254 1 -1.1104 6.11326 10.4746 9.21864
328 1 -1.1104 11.914 13.2237 9.52947
322 1 -1.1104 9.24516 13.1752 12.2988
267 1 -1.1104 8.83603 7.5041 7.04614
340 2 2.2208 13.3762 11.8354 7.99082
101 1 -1.1104 9.12041 10.4185 6.47738
321 1 -1.1104 9.14262 18.8475 12.439
339 2 2.2208 13.2348 6.37315 8.26817
268 1 -1.1104 9.05929 4.92693 9.3885
271 1 -1.1104 9.03692 4.84924 12.2717
273 1 -1.1104 8.96488 7.79427 9.64967
275 2 2.2208 7.51792 6.13311 8.11736
276 2 2.2208 10.3926 6.26854 10.911
278 1 -1.1104 11.8707 7.62178 12.3269
279 1 -1.1104 11.8695 7.73923 9.59573
280 1 -1.1104 11.8541 4.85889 12.171
283 1 -1.1104 11.767 4.88332 9.48361
285 1 -1.1104 8.91927 7.65188 12.3627
352 2 2.2208 4.84436 3.3712 13.7369
326 1 -1.1104 11.9264 15.9185 12.3929
264 1 -1.1104 9.07489 10.5325 9.432
270 1 -1.1104 9.11101 10.4472 12.176
272 2 2.2208 7.61542 8.98889 10.8026
274 2 2.2208 7.64929 11.89 8.1704
277 2 2.2208 10.4204 11.8787 10.8249
281 1 -1.1104 11.9923 10.5219 12.4312
282 2 2.2208 10.5024 9.05782 8.08531
284 1 -1.1104 11.8674 10.576 9.55002
341 2 2.2208 13.1876 9.0757 11.0227
53 2 2.2208 13.1879 -4.87855 2.3412
402 2 2.2208 13.1607 9.01447 -0.273072
111 1 -1.1104 6.04909 13.3172 6.52125
348 2 2.2208 4.85451 -2.19746 13.5492
124 1 -1.1104 3.43304 13.4016 6.54685
305 1 -1.1104 3.49613 13.2698 9.59967
299 1 -1.1104 0.653573 13.2413 12.1962
294 1 -1.1104 0.769724 13.2386 9.30473
287 1 -1.1104 3.47255 13.3615 12.3462
290 1 -1.1104 6.26352 13.1598 9.47081
297 1 -1.1104 6.31779 13.0936 12.4113
289 1 -1.1104 6.31726 15.825 9.27731
309 2 2.2208 2.06922 20.1176 10.9207
308 1 -1.1104 3.41066 16.2372 12.4508
307 1 -1.1104 0.655516 15.9789 12.4242
304 1 -1.1104 3.49681 16.0473 9.65967
303 2 2.2208 2.11565 17.4624 8.01322
301 1 -1.1104 3.24841 18.8357 9.29649
300 2 2.2208 4.7421 17.4398 10.8374
298 1 -1.1104 0.662295 18.8828 12.4124
295 2 2.2208 4.80913 14.6806 8.19125
310 2 2.2208 2.20452 14.5572 10.8893
293 2 2.2208 4.92672 20.2087 8.01867
292 1 -1.1104 0.781578 15.9267 9.48825
291 1 -1.1104 0.546465 18.6391 9.41328
286 1 -1.1104 3.5019 19.0262 12.4689
306 1 -1.1104 6.13632 16.0088 12.086
296 1 -1.1104 6.30969 18.9458 12.3441
288 1 -1.1104 6.11081 18.8515 9.64065
331 2 2.2208 10.6074 17.2846 10.9324
327 1 -1.1104 11.8335 18.5869 9.42151
332 2 2.2208 13.3257 17.3235 8.08242
333 2 2.2208 13.3452 14.5512 10.9071
316 2 2.2208 7.65595 20.2168 10.9091
149 1 -1.1104 11.9078 16.2425 6.6463
163 1 -1.1104 9.24282 15.7346 6.50851
315 1 -1.1104 8.91881 16.0619 12.3731
314 1 -1.1104 9.20489 16.1066 9.4504
345 2 2.2208 13.4053 20.2018 10.7056
325 2 2.2208 10.6114 14.6944 8.12997
323 1 -1.1104 12.1766 15.9987 9.61145
317 2 2.2208 7.68729 14.6846 10.9533
29 2 2.2208 4.73149 -4.86123 5.11816
380 2 2.2208 13.2628 17.5423 13.7417
385 2 2.2208 4.84692 -4.90599 -0.255322
370 2 2.2208 13.2228 0.721221 13.5476
389 2 2.2208 7.62296 3.48131 -0.24745
357 2 2.2208 10.3481 3.34755 13.6832
362 2 2.2208 13.2011 11.8307 13.6888
403 2 2.2208 2.08325 14.667 -0.268806
361 2 2.2208 2.01852 11.8263 13.6458
378 2 2.2208 10.4061 17.7355 -0.394713
406 2 2.2208 5.00787 0.663595 16.3928
407 1 -1.1104 0.556759 -3.69698 17.7575
411 1 -1.1104 0.661241 -3.66009 14.9365
419 1 -1.1104 0.820568 -0.968224 17.7838
421 2 2.2208 4.70001 -2.01658 19.2411
423 1 -1.1104 0.61555 -0.680525 15.0599
427 1 -1.1104 3.35585 -3.28314 17.9882
429 2 2.2208 2.05747 0.535767 19.1845
430 1 -1.1104 3.49862 -3.60457 15.0211
434 2 2.2208 2.10505 -2.19403 16.3942
436 1 -1.1104 3.53835 -0.573078 17.7729
437 1 -1.1104 3.5536 -0.806019 14.9202
425 1 -1.1104 6.29516 -0.702624 15.0256
409 1 -1.1104 6.12132 -3.35738 17.7909
415 1 -1.1104 6.30091 -3.4476 14.968
420 1 -1.1104 6.33025 -0.662985 17.9084
426 1 -1.1104 6.06825 -0.680939 20.8897
438 1 -1.1104 3.13787 -0.727887 20.8241
431 1 -1.1104 3.41159 -3.42864 20.6865
408 1 -1.1104 0.595571 1.91778 18.0021
413 1 -1.1104 0.358525 2.01433 15.1492
422 2 2.2208 4.89605 3.61034 19.3966
428 1 -1.1104 3.26473 2.00098 18.029
432 1 -1.1104 3.33608 2.04768 15.15
435 2 2.2208 2.07622 3.41228 16.5378
410 1 -1.1104 6.03619 1.96798 17.8542
414 1 -1.1104 0.581388 1.93275 20.7708
417 1 -1.1104 6.14887 2.16055 15.1714
668 2 2.2208 10.5571 -4.85337 21.9933
412 1 -1.1104 0.556218 -3.69445 20.6744
416 1 -1.1104 6.0956 -3.33809 20.752
418 1 -1.1104 6.35345 2.05692 20.7136
391 2 2.2208 13.354 -2.13471 27.7976
449 2 2.2208 10.5509 0.616199 16.4877
450 1 -1.1104 11.9651 -3.58825 17.8072
452 1 -1.1104 11.8381 -3.5958 15.0902
456 1 -1.1104 11.8046 -0.621646 18.0265
457 2 2.2208 10.4135 -2.1811 19.2381
459 1 -1.1104 11.9717 -0.791286 15.1474
461 1 -1.1104 9.01527 -3.57465 17.8183
463 2 2.2208 7.67634 0.689992 19.2612
464 1 -1.1104 9.1852 -3.49853 15.1676
468 2 2.2208 7.71805 -2.0934 16.465
470 1 -1.1104 8.9714 -0.809255 17.8958
471 1 -1.1104 9.05805 -0.645753 15.0863
477 2 2.2208 13.3777 -2.26345 16.4656
578 2 2.2208 13.3266 0.679285 19.1267
451 1 -1.1104 11.9846 2.12476 17.8411
454 1 -1.1104 11.8006 1.94203 15.0469
458 2 2.2208 10.6102 3.55667 19.2959
462 1 -1.1104 9.11294 2.02176 18.0156
466 1 -1.1104 9.00878 2.23197 15.2523
469 2 2.2208 7.54705 3.58442 16.5644
579 2 2.2208 13.4586 3.42554 16.5238
472 1 -1.1104 9.27803 -0.782484 20.7654
467 1 -1.1104 9.07512 2.12063 20.7648
455 1 -1.1104 11.968 2.25277 20.4277
482 2 2.2208 4.81977 6.1898 16.5985
484 1 -1.1104 0.489769 7.60401 17.9729
486 1 -1.1104 0.551409 7.60647 14.9937
490 1 -1.1104 0.656251 4.79687 17.8945
495 1 -1.1104 0.667505 4.87624 15.1185
503 1 -1.1104 3.43873 7.67775 17.9896
504 2 2.2208 1.94967 6.22094 19.3523
506 1 -1.1104 3.30018 7.77854 15.0857
509 1 -1.1104 3.51383 4.76107 17.8617
511 1 -1.1104 3.48949 5.0425 14.8845
499 1 -1.1104 6.18782 4.67134 15.2338
496 1 -1.1104 0.53594 4.90243 20.6869
492 1 -1.1104 6.27458 4.89007 17.9522
507 1 -1.1104 3.51094 7.59872 20.8491
487 1 -1.1104 0.7589 7.573 20.6942
500 1 -1.1104 6.19484 4.95496 20.7596
488 1 -1.1104 6.10318 7.4892 15.0273
483 2 2.2208 4.82424 11.7591 16.6034
491 1 -1.1104 0.781179 10.4007 17.9537
494 2 2.2208 4.99441 9.00628 19.3152
497 1 -1.1104 0.623647 10.4691 15.0007
505 2 2.2208 2.17583 11.7331 19.2205
508 2 2.2208 2.08854 8.91806 16.3993
510 1 -1.1104 3.52915 10.4132 17.9715
513 1 -1.1104 3.5134 10.4467 15.1348
501 1 -1.1104 6.33787 10.6377 15.2267
493 1 -1.1104 6.17787 10.4181 17.9795
512 1 -1.1104 3.37475 4.8809 20.7592
514 1 -1.1104 3.48995 10.3591 20.7956
498 1 -1.1104 0.523203 10.552 20.6582
485 1 -1.1104 6.39349 7.56473 17.9002
542 2 2.2208 13.3506 6.23076 19.3637
518 2 2.2208 10.6428 6.21017 16.3944
520 1 -1.1104 11.9984 7.45466 17.9362
521 1 -1.1104 12.0178 7.63332 15.194
523 1 -1.1104 11.999 4.7676 17.8319
526 1 -1.1104 12.0748 4.72375 15.0354
530 1 -1.1104 9.21647 7.60036 17.8752
531 2 2.2208 7.66309 6.37843 19.2767
533 1 -1.1104 9.05622 7.51918 15.1252
536 1 -1.1104 8.98392 4.94082 17.8395
538 1 -1.1104 9.27366 4.92757 15.0171
522 1 -1.1104 11.8271 7.57516 20.5775
539 1 -1.1104 9.00964 4.90282 20.581
534 1 -1.1104 9.15304 7.72495 20.7325
519 2 2.2208 10.5697 11.7417 16.4289
524 1 -1.1104 11.8778 10.3736 17.82
525 2 2.2208 10.4962 9.01773 19.3016
528 1 -1.1104 12.086 10.4958 15.1617
532 2 2.2208 7.64488 11.9972 19.3718
535 2 2.2208 7.6808 8.96962 16.6853
537 1 -1.1104 9.02866 10.3565 17.7975
540 1 -1.1104 9.10379 10.2841 14.9971
517 2 2.2208 13.4039 11.8061 19.3341
543 2 2.2208 13.4251 8.99983 16.537
541 1 -1.1104 9.09125 10.5701 20.4876
529 1 -1.1104 11.8546 10.352 20.7851
546 1 -1.1104 0.632807 13.2522 17.7915
550 1 -1.1104 0.663641 13.2869 15.069
566 1 -1.1104 3.25962 13.2672 17.9499
569 1 -1.1104 3.51412 13.2925 15.093
551 1 -1.1104 0.700869 13.4187 20.4448
570 1 -1.1104 3.48336 13.1175 20.7795
554 1 -1.1104 6.31984 13.3998 15.3101
548 1 -1.1104 6.0969 12.9991 18.0584
573 2 2.2208 2.11324 14.6332 16.3401
545 2 2.2208 4.95288 17.6651 16.5151
547 1 -1.1104 0.799429 19.0341 17.9461
552 1 -1.1104 0.771188 19.0697 15.1769
558 1 -1.1104 0.612461 16.2262 18.0132
560 2 2.2208 4.70865 14.7132 19.3436
561 2 2.2208 4.81347 20.3772 19.3548
562 1 -1.1104 0.733351 16.191 15.2738
567 1 -1.1104 3.55959 19.0478 17.9203
568 2 2.2208 2.0565 17.4742 19.3771
571 1 -1.1104 3.49555 18.8885 15.2103
574 2 2.2208 2.1781 20.4758 16.558
575 1 -1.1104 3.42229 16.1149 17.9812
576 1 -1.1104 3.59834 16.0797 15.1902
556 1 -1.1104 6.40965 18.9183 15.1595
553 1 -1.1104 0.762875 18.811 20.8585
564 1 -1.1104 6.57046 16.1098 15.104
549 1 -1.1104 6.21228 18.7907 18.0398
559 1 -1.1104 6.21384 16.062 17.8355
557 1 -1.1104 6.39333 18.7352 20.7623
555 1 -1.1104 6.26564 13.2846 20.8173
577 1 -1.1104 3.37017 16.2395 20.7399
572 1 -1.1104 3.44621 19.0592 20.9125
563 1 -1.1104 0.605399 16.1529 20.7135
565 1 -1.1104 6.28391 15.9578 20.5632
394 2 2.2208 1.89697 9.18303 27.7344
582 1 -1.1104 11.8542 13.1138 17.9707
584 1 -1.1104 11.9447 13.0948 15.1848
593 1 -1.1104 8.76947 13.1847 17.7668
596 1 -1.1104 9.00302 13.1856 15.0959
585 1 -1.1104 11.9541 13.2117 20.7795
597 1 -1.1104 8.97339 13.3966 20.6551
478 2 2.2208 13.2237 20.2659 16.6404
479 2 2.2208 13.3635 17.2845 19.4429
592 1 -1.1104 11.8682 16.0493 20.8048
581 2 2.2208 10.484 17.474 16.5052
583 1 -1.1104 11.8441 18.9049 17.9658
586 1 -1.1104 11.8842 18.7564 15.2492
588 1 -1.1104 11.8449 15.9557 17.988
589 2 2.2208 10.3904 14.5365 19.4022
590 2 2.2208 10.4273 20.4089 19.2032
591 1 -1.1104 11.8396 15.843 15.2403
594 1 -1.1104 9.04806 18.7766 17.8218
595 2 2.2208 7.83264 17.3581 19.4085
598 1 -1.1104 9.16007 18.7774 15.1787
600 2 2.2208 7.72702 14.794 16.4941
601 2 2.2208 7.70854 20.2599 16.7101
602 1 -1.1104 9.0364 16.0779 17.8602
603 1 -1.1104 9.27083 16.0247 14.957
599 1 -1.1104 9.37724 19.1594 20.9989
480 2 2.2208 13.119 14.4887 16.5535
587 1 -1.1104 12.0264 18.7056 20.9724
604 1 -1.1104 9.17363 16.2037 20.6948
664 1 -1.1104 9.04871 13.2425 23.4949
606 2 2.2208 13.2629 20.346 22.0546
433 1 -1.1104 3.51845 2.00008 20.674
424 1 -1.1104 0.47488 -0.857993 20.4662
609 2 2.2208 4.84813 0.724439 22.1537
610 1 -1.1104 0.59023 -3.52165 23.6888
614 1 -1.1104 0.57119 -3.53583 26.4784
618 1 -1.1104 0.520663 -0.791472 23.3128
620 2 2.2208 4.81432 -2.24064 25.0599
622 1 -1.1104 0.469862 -0.790261 26.2035
624 1 -1.1104 3.37222 -3.59917 23.6434
626 2 2.2208 2.01244 0.464345 24.8406
627 1 -1.1104 3.47875 -3.56933 26.4326
629 2 2.2208 1.94211 -2.25539 22.1342
631 1 -1.1104 3.36465 -0.955344 23.7385
632 1 -1.1104 3.16318 -0.792834 26.463
623 1 -1.1104 6.30337 -0.89592 26.2361
612 1 -1.1104 6.10677 -3.58165 23.5831
619 1 -1.1104 6.33684 -0.815478 23.4926
616 1 -1.1104 6.3031 -3.71563 26.4983
611 1 -1.1104 0.648426 1.89133 23.4913
615 1 -1.1104 0.633945 1.92814 26.256
621 2 2.2208 4.69848 3.4605 24.9591
625 1 -1.1104 3.48985 1.96119 23.4715
628 1 -1.1104 3.44671 2.031 26.3815
630 2 2.2208 1.90743 3.20045 22.0497
613 1 -1.1104 6.21442 2.11446 23.6366
617 1 -1.1104 6.28585 1.80206 26.3116
366 2 2.2208 13.3268 6.27657 13.711
580 2 2.2208 13.3597 14.7733 22.176
671 2 2.2208 13.316 -2.10748 22.1521
440 2 2.2208 4.87165 -4.93203 16.5379
446 2 2.2208 13.2589 3.53388 22.0639
460 1 -1.1104 12.1992 -0.629757 20.6477
465 1 -1.1104 8.92281 -3.64766 20.5863
453 1 -1.1104 11.8164 -3.33154 20.6235
701 1 -1.1104 8.89838 16.0431 23.4413
645 2 2.2208 10.5763 0.708901 22.0882
646 1 -1.1104 11.8524 -3.53278 23.3467
648 1 -1.1104 12.0681 -3.48401 26.3917
650 1 -1.1104 11.884 -0.773997 23.7423
651 2 2.2208 10.4368 -2.21303 24.8314
653 1 -1.1104 11.951 -0.696373 26.4131
654 1 -1.1104 9.08544 -3.69927 23.416
656 2 2.2208 7.58349 0.694931 24.8094
657 1 -1.1104 9.10669 -3.47919 26.2826
659 2 2.2208 7.77718 -2.16705 21.9948
661 1 -1.1104 9.22191 -0.995951 23.4661
662 1 -1.1104 9.17303 -0.743396 26.2986
672 2 2.2208 13.4196 0.654711 24.925
647 1 -1.1104 11.9659 2.11542 23.324
649 1 -1.1104 11.8201 2.17011 26.1849
652 2 2.2208 10.4082 3.51691 25.0321
655 1 -1.1104 9.05664 1.87679 23.4472
658 1 -1.1104 9.03278 2.1916 26.3499
660 2 2.2208 7.70036 3.59886 22.0528
365 2 2.2208 7.7543 11.7686 13.734
383 2 2.2208 1.91954 3.47143 27.7086
373 2 2.2208 10.5697 14.5992 13.7844
364 2 2.2208 10.4185 8.91691 13.6732
633 1 -1.1104 12.0094 18.9227 23.64
666 2 2.2208 13.1175 -4.86062 24.9066
489 1 -1.1104 6.33172 7.68386 20.7479
704 1 -1.1104 9.11605 16.2449 26.2877
674 2 2.2208 4.81272 6.15509 22.2394
676 1 -1.1104 0.429374 7.91374 23.4277
678 1 -1.1104 0.595061 7.7527 26.3909
680 1 -1.1104 0.487293 4.79281 23.5133
685 1 -1.1104 0.488889 4.92858 26.2799
689 1 -1.1104 3.32684 7.72229 23.6807
690 2 2.2208 2.00464 6.14654 25.0373
692 1 -1.1104 3.22402 7.58714 26.313
694 1 -1.1104 3.13502 4.82445 23.5538
696 1 -1.1104 3.37375 4.87005 26.4073
677 1 -1.1104 6.28499 7.60016 23.4215
679 1 -1.1104 6.06137 7.67463 26.2499
687 1 -1.1104 6.10651 4.64625 26.436
682 1 -1.1104 6.06484 4.84247 23.711
502 1 -1.1104 6.30091 10.4325 20.695
675 2 2.2208 4.89119 11.7913 22.0444
681 1 -1.1104 0.494489 10.5034 23.4143
684 2 2.2208 4.815 9.08524 24.8074
686 1 -1.1104 0.711226 10.6069 26.2755
691 2 2.2208 2.07103 11.8567 24.8089
693 2 2.2208 1.98938 9.07846 22.1665
695 1 -1.1104 3.46256 10.4742 23.6251
697 1 -1.1104 3.66106 10.5542 26.2627
683 1 -1.1104 6.31656 10.4226 23.3842
688 1 -1.1104 6.26784 10.5939 26.092
605 2 2.2208 13.3492 17.4467 24.9471
382 2 2.2208 1.83335 -2.07748 27.7836
634 1 -1.1104 11.8803 13.4135 26.1635
728 2 2.2208 13.1774 6.30723 25.0394
527 1 -1.1104 11.9568 5.05653 20.7501
706 1 -1.1104 8.83573 4.96579 26.4646
708 1 -1.1104 8.97779 4.91746 23.5032
710 1 -1.1104 8.97032 7.76955 26.2876
712 2 2.2208 7.6441 6.24222 24.8763
713 2 2.2208 10.4074 6.14684 22.1318
715 1 -1.1104 11.7976 7.67731 23.4339
716 1 -1.1104 11.8474 7.79127 26.2868
717 1 -1.1104 11.9654 4.86745 23.651
720 1 -1.1104 11.6417 5.05422 26.4079
722 1 -1.1104 9.13325 7.74169 23.526
445 2 2.2208 13.2518 9.22338 22.1072
726 2 2.2208 13.2991 11.9168 24.9411
368 2 2.2208 2.11988 17.5769 13.795
705 1 -1.1104 9.28336 10.5668 26.2369
707 1 -1.1104 8.98174 10.4759 23.4954
709 2 2.2208 7.68053 9.07155 22.0043
711 2 2.2208 7.61856 11.8546 24.9312
714 2 2.2208 10.5089 11.9632 22.0637
718 1 -1.1104 11.8915 10.7185 23.5873
719 2 2.2208 10.4613 9.20743 24.7117
721 1 -1.1104 11.9508 10.6708 26.5246
638 2 2.2208 10.5537 14.7423 24.8475
636 1 -1.1104 12.0154 16.1589 23.6729
746 1 -1.1104 3.3207 13.3227 26.3557
731 1 -1.1104 3.37313 13.3219 23.5232
735 1 -1.1104 0.559911 13.41 26.391
741 1 -1.1104 0.58154 13.2912 23.3788
739 1 -1.1104 6.2493 13.0862 23.4407
730 1 -1.1104 6.1847 13.2843 26.3475
747 1 -1.1104 6.20481 16.1736 23.5297
732 1 -1.1104 6.15964 16.0554 26.1759
743 1 -1.1104 3.34918 18.9888 26.2809
748 1 -1.1104 0.71579 16.1439 23.521
745 1 -1.1104 3.36566 16.3377 26.2581
744 2 2.2208 1.94519 17.4897 24.8974
750 2 2.2208 2.05654 20.1701 22.3424
749 1 -1.1104 3.35981 16.007 23.3025
727 2 2.2208 1.93945 14.6003 22.094
729 1 -1.1104 3.5342 18.8931 23.6312
733 1 -1.1104 0.492405 18.9123 26.3963
734 1 -1.1104 0.660429 16.1033 26.4137
737 2 2.2208 4.97132 20.2851 24.9751
738 2 2.2208 4.62943 14.6302 24.8096
740 1 -1.1104 0.585465 18.9063 23.7232
742 2 2.2208 4.7846 17.5797 22.086
670 1 -1.1104 6.11393 18.8467 26.3518
736 1 -1.1104 6.23572 18.9513 23.5955
673 1 -1.1104 8.96654 13.4167 26.3854
699 2 2.2208 7.49379 14.6691 22.1276
667 2 2.2208 7.58764 17.3851 25.041
607 2 2.2208 10.6219 17.6336 22.2485
641 2 2.2208 10.557 20.4301 24.9119
663 1 -1.1104 11.9193 16.2554 26.5444
698 1 -1.1104 8.91633 19.0231 26.4359
665 1 -1.1104 9.15949 18.9849 23.6961
608 1 -1.1104 11.9256 13.4149 23.4604
700 2 2.2208 7.77815 20.2908 22.17
635 1 -1.1104 12.0269 18.9891 26.4695
379 2 2.2208 7.65713 20.4163 27.6044
640 2 2.2208 2.04156 -4.86336 24.9471
388 2 2.2208 7.6462 -2.08586 27.5753
369 2 2.2208 4.92286 20.3259 13.5971
393 2 2.2208 4.80412 6.26926 27.6762
639 2 2.2208 4.99998 -4.8472 22.0914
441 2 2.2208 2.00245 -4.87098 19.3073
399 2 2.2208 7.6377 9.08484 27.6361
376 2 2.2208 7.83246 17.5611 13.7951
381 2 2.2208 4.75539 0.669191 27.6727
363 2 2.2208 7.6551 6.15966 13.719
400 2 2.2208 10.5229 11.9887 27.7242
473 2 2.2208 13.4409 -4.83838 19.1643
404 2 2.2208 4.77051 17.5788 27.6288
475 2 2.2208 7.60173 -4.87359 19.1854
359 2 2.2208 1.96922 6.15243 13.6578
387 2 2.2208 10.5295 0.642858 27.6871
360 2 2.2208 4.94958 8.91324 13.6992
356 2 2.2208 10.476 -2.18888 13.6291
377 2 2.2208 7.59922 14.7163 27.6517
474 2 2.2208 10.5425 -4.92804 16.4568
372 2 2.2208 10.5914 20.2888 13.769
349 2 2.2208 1.96275 0.663679 13.7204
371 2 2.2208 4.91707 14.691 13.7938
395 2 2.2208 4.96791 11.9045 27.6594
398 2 2.2208 10.338 6.50242 27.7244
374 2 2.2208 13.3386 14.8011 27.6623
392 2 2.2208 13.1994 3.4719 27.5978
751 2 2.2208 4.73946 23.0197 5.19491
753 1 -1.1104 0.491376 24.6317 1.03868
754 1 -1.1104 0.454017 24.4402 3.65802
755 1 -1.1104 0.497757 21.6445 1.17779
757 2 2.2208 4.72648 25.8882 2.51405
758 1 -1.1104 0.496411 21.6451 3.87925
760 1 -1.1104 3.43079 24.7272 1.04062
761 2 2.2208 2.03499 23.187 2.48025
763 1 -1.1104 3.51248 24.4904 3.99474
764 2 2.2208 1.9655 25.8421 5.43688
765 1 -1.1104 3.35654 22.0481 1.06375
767 1 -1.1104 3.36631 21.8161 3.97996
768 1 -1.1104 3.42059 27.2535 3.83856
776 1 -1.1104 6.30985 21.7145 3.87838
775 1 -1.1104 6.12354 27.3987 0.824351
773 1 -1.1104 6.19132 24.3538 3.76747
772 1 -1.1104 6.33532 24.5798 1.03413
756 1 -1.1104 0.468235 27.3799 0.95759
759 1 -1.1104 0.563339 27.4144 3.70646
896 1 -1.1104 6.12514 21.5958 6.50794
774 1 -1.1104 6.3101 21.8667 1.01018
777 1 -1.1104 6.16004 27.2749 3.58846
894 1 -1.1104 0.529853 21.7523 6.611
766 1 -1.1104 3.43847 27.3846 0.946562
752 2 2.2208 4.82155 28.7734 5.12669
762 2 2.2208 1.99089 28.8104 2.45452
10259 1 -1.1104 12.962 44.3424 12.4129
1105 2 2.2208 2.02333 40.0878 13.4673
1894 3 0 12.434 46.8478 10.8625
778 2 2.2208 10.3936 22.9665 5.16452
780 1 -1.1104 11.9904 24.74 0.874681
781 1 -1.1104 11.5999 24.5758 3.59111
782 1 -1.1104 12.1061 21.768 1.13557
784 2 2.2208 10.5736 26.1456 2.32933
785 1 -1.1104 11.9338 21.6609 3.94011
787 1 -1.1104 9.28365 24.4762 0.955981
788 2 2.2208 7.72405 23.0965 2.23771
790 1 -1.1104 8.97056 24.4938 3.98143
791 2 2.2208 7.53294 25.8862 5.15494
792 1 -1.1104 9.12283 21.8205 0.956681
793 1 -1.1104 9.16366 27.3477 0.803771
794 1 -1.1104 9.27743 21.707 3.70127
783 1 -1.1104 11.9011 27.4308 0.518386
795 1 -1.1104 9.09155 27.5788 3.65362
786 1 -1.1104 11.9327 27.541 3.73862
927 1 -1.1104 11.9063 27.2554 6.59447
796 2 2.2208 13.3644 23.2562 2.31683
798 2 2.2208 13.3743 25.9658 5.10307
779 2 2.2208 10.5019 28.8787 5.21499
789 2 2.2208 7.59132 28.7277 2.25534
797 2 2.2208 13.446 28.9001 2.26359
1086 1 -1.1104 9.12313 46.8826 6.5697
800 1 -1.1104 0.573025 29.9742 1.29531
803 1 -1.1104 0.563532 30.3376 3.85208
806 1 -1.1104 0.536117 32.6433 0.722376
807 2 2.2208 4.63506 31.4997 2.22304
809 1 -1.1104 0.578418 32.9709 3.68255
811 1 -1.1104 3.3018 30.0562 0.933621
814 1 -1.1104 3.44136 30.2214 3.79007
816 2 2.2208 2.04564 31.7419 5.26396
818 1 -1.1104 3.39786 32.9458 0.696568
819 1 -1.1104 3.31432 32.9607 3.58247
953 1 -1.1104 0.592846 32.991 6.68539
810 1 -1.1104 6.10826 32.7708 3.61778
955 1 -1.1104 3.61157 30.3809 6.6752
949 1 -1.1104 0.754043 30.3266 6.53537
823 1 -1.1104 6.17936 30.1661 0.829636
957 1 -1.1104 3.33266 33.2849 6.60597
951 1 -1.1104 6.4658 29.9543 6.55182
824 1 -1.1104 6.28489 29.9531 3.74453
799 2 2.2208 4.74545 34.3154 5.09343
801 1 -1.1104 0.553309 35.6508 0.830716
804 1 -1.1104 0.47891 35.6202 3.5883
808 2 2.2208 4.74984 37.1783 2.31142
812 1 -1.1104 3.40236 35.7583 1.01078
813 2 2.2208 1.87014 34.5087 2.35539
815 1 -1.1104 3.27689 35.5831 3.77054
817 2 2.2208 1.85608 36.9458 5.04348
952 1 -1.1104 6.34465 35.6689 6.59503
802 1 -1.1104 6.35839 35.6985 1.01704
956 1 -1.1104 3.11115 35.833 6.71774
805 1 -1.1104 6.30416 35.6304 3.68782
825 1 -1.1104 6.19244 32.9606 0.780149
1068 2 2.2208 13.3625 31.5212 5.23498
827 1 -1.1104 11.9672 30.0491 0.951761
829 1 -1.1104 12.0686 30.344 3.63725
831 1 -1.1104 11.6413 32.8198 0.81985
832 2 2.2208 10.4575 31.5299 2.32709
834 1 -1.1104 11.8656 33.0116 3.76173
835 1 -1.1104 8.99363 29.9635 0.771467
838 1 -1.1104 9.21707 30.135 3.85608
840 2 2.2208 7.61401 31.4565 5.12023
842 1 -1.1104 8.78245 32.6964 0.919663
843 1 -1.1104 9.08061 32.9509 3.58787
988 1 -1.1104 9.08228 33.0776 6.39955
983 1 -1.1104 12.0368 29.9846 6.52787