ITEM: TIMESTEP
70000
ITEM: NUMBER OF ATOMS
17732
ITEM: BOX BOUNDS pp pp pp
-4.1177283574936946e-01 2.7751772835750703e+01
-4.9503496021169502e+00 3.3303034960211011e+02
-3.9355790958470221e-01 2.7733557909584988e+01
ITEM: ATOMS id type q x y z
1 2 2.2208 4.99399 0.647502 5.21574
2 1 -1.1104 0.652462 -3.55825 1.07696
6 1 -1.1104 0.797094 -3.53917 4.07542
10 1 -1.1104 0.682336 -0.816429 1.09735
12 2 2.2208 5.11691 -2.20199 2.51824
14 1 -1.1104 0.874494 -0.727113 3.74868
16 1 -1.1104 3.29026 -3.73236 1.07158
18 2 2.2208 2.32659 0.720475 2.38965
19 1 -1.1104 3.76083 -3.53714 3.90212
21 2 2.2208 2.20356 -1.99127 5.27447
23 1 -1.1104 3.58154 -0.735 0.857688
24 1 -1.1104 3.61857 -0.640519 3.79609
4 1 -1.1104 6.46037 -3.52488 1.06851
11 1 -1.1104 6.63612 -0.756957 1.12207
8 1 -1.1104 6.52965 -3.50289 3.90014
15 1 -1.1104 6.54621 -0.856368 3.93646
3 1 -1.1104 0.821073 2.15553 1.00568
7 1 -1.1104 1.05586 1.95742 3.79024
17 1 -1.1104 3.7064 1.89343 0.901104
20 1 -1.1104 3.60287 2.11229 3.83692
22 2 2.2208 2.33773 3.49819 5.2501
13 2 2.2208 5.11395 3.50852 2.38371
9 1 -1.1104 6.30704 2.0325 3.88079
5 1 -1.1104 6.29521 2.1943 0.906557
169 1 -1.1104 6.59497 2.0989 6.84731
104 2 2.2208 13.479 11.7871 2.3746
336 2 2.2208 13.4946 20.2179 5.18471
174 1 -1.1104 3.64336 -0.648536 6.69582
171 1 -1.1104 6.43991 -0.633102 6.53108
332 2 2.2208 13.5159 17.3818 8.01057
31 2 2.2208 10.6769 0.790219 5.36775
32 1 -1.1104 12.0021 -3.56909 0.873313
34 1 -1.1104 12.3998 -3.49397 3.71885
36 1 -1.1104 12.1039 -0.775308 0.847432
37 2 2.2208 10.6353 -1.95748 2.24943
39 1 -1.1104 11.9851 -0.73336 3.87201
40 1 -1.1104 9.37906 -3.46888 0.995071
42 2 2.2208 7.7886 0.671901 2.42984
43 1 -1.1104 9.5378 -3.51087 3.91244
45 2 2.2208 7.9291 -2.15797 5.24478
47 1 -1.1104 9.17376 -0.659633 1.1184
48 1 -1.1104 9.20297 -0.627722 3.70726
50 2 2.2208 13.5533 -2.08051 5.25401
207 1 -1.1104 12.2346 -0.900175 6.65575
33 1 -1.1104 12.0809 2.01357 1.01615
35 1 -1.1104 12.1285 2.22902 3.78314
41 1 -1.1104 9.23297 2.04199 0.950679
44 1 -1.1104 9.24926 2.11513 3.72052
46 2 2.2208 7.88201 3.53075 5.20102
38 2 2.2208 10.6728 3.46942 2.36006
206 1 -1.1104 12.1483 1.97402 6.69772
334 2 2.2208 13.5576 3.53523 5.22913
209 1 -1.1104 9.28657 2.14423 6.58815
26 2 2.2208 -0.446891 0.709885 5.18655
49 2 2.2208 13.5556 0.723856 2.36476
205 1 -1.1104 12.1417 -3.69563 6.54698
54 2 2.2208 4.93617 6.41953 5.16701
56 1 -1.1104 0.618343 7.72098 0.99301
58 1 -1.1104 0.681668 7.60226 3.76634
60 1 -1.1104 0.930722 5.00088 0.806372
67 1 -1.1104 0.761817 4.74059 3.50276
71 1 -1.1104 3.52512 7.54417 1.04527
72 2 2.2208 2.1693 6.31582 2.3961
74 1 -1.1104 3.53995 7.72495 3.78578
76 1 -1.1104 3.82638 4.68937 0.981254
79 1 -1.1104 3.70318 4.95177 3.89393
237 1 -1.1104 6.40852 4.85436 6.35763
69 1 -1.1104 6.51008 4.64795 3.63513
63 1 -1.1104 6.5978 5.03623 0.977095
59 1 -1.1104 6.44651 7.74048 3.80065
57 1 -1.1104 6.34902 7.79448 1.0342
238 1 -1.1104 3.73399 7.54888 6.74476
235 1 -1.1104 6.64676 7.59633 6.49796
55 2 2.2208 5.1384 11.9709 5.0872
61 1 -1.1104 0.574897 10.3161 0.879606
66 2 2.2208 4.95153 9.03254 2.46475
68 1 -1.1104 0.804784 10.3454 3.48527
73 2 2.2208 2.10374 11.9056 2.38813
75 2 2.2208 2.09979 9.06629 5.20469
77 1 -1.1104 3.60101 10.3391 1.0859
80 1 -1.1104 3.57008 10.6097 3.69808
62 1 -1.1104 0.92033 10.5009 6.45289
70 1 -1.1104 6.39292 10.6037 3.84355
78 1 -1.1104 3.63765 10.3481 6.32502
239 1 -1.1104 3.59646 4.82656 6.76253
340 2 2.2208 13.4979 12.0052 8.09917
64 1 -1.1104 6.30619 10.5308 1.05926
84 2 2.2208 10.5023 6.41273 5.05315
86 1 -1.1104 12.1232 7.44753 1.10028
87 1 -1.1104 11.7706 7.90284 3.937
88 1 -1.1104 12.1608 4.75044 1.004
92 1 -1.1104 12.1551 5.14535 3.92324
94 1 -1.1104 9.31904 7.48142 0.936389
95 2 2.2208 7.87453 6.25482 2.40045
97 1 -1.1104 9.13974 7.79822 3.59512
99 1 -1.1104 9.36508 4.75896 1.04326
102 1 -1.1104 9.34587 4.89624 3.69583
105 2 2.2208 13.6235 6.16269 2.39627
85 2 2.2208 10.7371 11.8513 5.11091
89 1 -1.1104 12.1488 10.3932 0.89243
91 2 2.2208 10.6669 8.98195 2.2466
93 1 -1.1104 12.1914 10.6615 3.72896
96 2 2.2208 8.05018 11.846 2.25728
98 2 2.2208 7.79082 9.01838 5.08671
100 1 -1.1104 9.27374 10.3925 0.990609
103 1 -1.1104 9.24548 10.5718 3.85028
357 2 2.2208 10.743 3.46082 13.4251
373 2 2.2208 10.8297 14.6304 13.6707
266 1 -1.1104 12.06 4.67568 6.77367
267 1 -1.1104 9.08367 7.67738 6.3472
265 1 -1.1104 11.9599 7.50205 6.52155
269 1 -1.1104 9.18033 4.91912 6.52226
90 1 -1.1104 12.0167 10.4209 6.56995
371 2 2.2208 4.99109 14.6576 13.5503
107 1 -1.1104 1.03293 13.376 1.0813
113 1 -1.1104 0.634298 13.2925 3.82122
123 1 -1.1104 3.85028 13.3591 0.951156
128 1 -1.1104 3.52139 13.431 3.72045
110 1 -1.1104 6.76362 13.463 1.00547
115 1 -1.1104 6.53497 13.5848 3.81497
108 1 -1.1104 0.848961 13.4931 6.4942
130 2 2.2208 2.16618 14.7795 5.12133
106 2 2.2208 5.13376 17.507 5.24963
109 1 -1.1104 0.825539 19.0906 0.967745
114 1 -1.1104 0.849154 19.0158 3.74771
116 1 -1.1104 0.767984 16.1663 0.969656
119 2 2.2208 5.1989 14.6158 2.22505
120 2 2.2208 5.01924 20.3419 2.39587
121 1 -1.1104 0.866713 16.1027 3.7503
125 1 -1.1104 3.58374 19.0445 1.08536
127 2 2.2208 2.27681 17.4824 2.34055
129 1 -1.1104 3.47338 18.9965 3.6594
131 2 2.2208 2.23451 20.3878 5.19785
132 1 -1.1104 3.58387 16.3514 0.828724
134 1 -1.1104 3.6649 16.116 3.6268
138 1 -1.1104 6.37355 19.0434 1.06799
140 1 -1.1104 6.53397 16.2619 0.898509
122 1 -1.1104 6.51385 16.2319 3.68441
118 1 -1.1104 6.50066 16.0636 6.61751
133 1 -1.1104 3.54738 16.0627 6.39482
126 1 -1.1104 3.64824 18.8052 6.4484
112 1 -1.1104 6.30029 18.6943 6.76333
124 1 -1.1104 3.69305 13.2528 6.49828
117 1 -1.1104 0.912462 16.051 6.54222
302 1 -1.1104 0.786897 18.9894 6.44754
139 1 -1.1104 6.3544 19.0326 3.85316
142 1 -1.1104 12.2319 13.3262 0.861533
146 1 -1.1104 12.0067 13.2076 3.82756
153 1 -1.1104 9.55739 13.3638 1.10863
158 1 -1.1104 9.2548 13.2297 3.74391
154 1 -1.1104 9.36531 13.2673 6.58352
232 2 2.2208 10.7473 -4.79937 10.7588
150 2 2.2208 10.8183 14.7296 2.39634
141 2 2.2208 10.6965 17.4547 5.2446
144 1 -1.1104 12.2419 18.7188 0.848021
147 1 -1.1104 12.0943 18.841 3.694
148 1 -1.1104 12.2074 15.9704 1.11286
151 2 2.2208 10.7408 20.2427 2.38501
152 1 -1.1104 12.2906 16.09 3.77953
155 1 -1.1104 9.29119 19.0705 0.980411
157 2 2.2208 7.80113 17.566 2.42201
159 1 -1.1104 9.1888 18.7747 3.77019
160 2 2.2208 7.9758 14.8403 5.09035
161 2 2.2208 8.00358 20.2637 5.12462
162 1 -1.1104 9.29072 16.1456 0.847539
164 1 -1.1104 9.45357 16.0144 3.67231
149 1 -1.1104 11.8971 15.9415 6.55981
337 2 2.2208 13.5154 14.5925 5.20301
370 2 2.2208 13.4654 0.608418 13.6374
143 1 -1.1104 12.1192 13.2455 6.74278
29 2 2.2208 5.02567 -4.88835 5.38044
163 1 -1.1104 9.15902 16.2377 6.25716
405 2 2.2208 2.28322 20.3611 -0.390794
51 2 2.2208 7.89858 -4.87571 2.44317
168 1 -1.1104 6.5096 -3.39327 6.70365
170 1 -1.1104 0.823543 -0.535632 6.53477
166 1 -1.1104 0.975966 -3.406 6.85451
167 1 -1.1104 0.936105 2.17067 6.61052
366 2 2.2208 13.4708 6.22598 13.6671
172 1 -1.1104 3.61366 -3.48081 6.53757
175 2 2.2208 5.14923 0.814123 10.9716
176 1 -1.1104 0.991135 -3.33902 12.4514
180 1 -1.1104 0.917698 -3.38633 9.60694
184 1 -1.1104 1.02554 -0.675856 12.1528
186 2 2.2208 5.09865 -2.06289 7.98851
188 1 -1.1104 0.809714 -0.695442 9.42114
190 1 -1.1104 3.82846 -3.63678 12.2465
192 2 2.2208 2.37709 0.779544 8.16031
193 1 -1.1104 3.60204 -3.51756 9.55882
195 2 2.2208 2.2685 -2.12165 10.8359
197 1 -1.1104 3.79518 -0.84165 12.1452
198 1 -1.1104 3.75582 -0.810287 9.5303
189 1 -1.1104 6.5153 -0.622904 9.39131
182 1 -1.1104 6.30083 -3.55818 9.30959
185 1 -1.1104 6.5245 -0.864638 12.2236
178 1 -1.1104 6.52481 -3.63216 12.1924
173 1 -1.1104 3.71381 2.13575 6.62824
177 1 -1.1104 0.697162 2.02407 12.1628
181 1 -1.1104 0.969046 2.10525 9.48178
187 2 2.2208 5.01799 3.41698 8.01561
191 1 -1.1104 3.5863 2.15261 12.3094
194 1 -1.1104 3.83571 1.8866 9.52094
196 2 2.2208 2.22147 3.44054 10.8414
179 1 -1.1104 6.58841 2.09664 12.1828
183 1 -1.1104 6.56998 2.2437 9.57073
354 2 2.2208 13.4911 -4.8939 13.5606
348 2 2.2208 5.21945 -2.11485 13.6653
333 2 2.2208 13.7008 14.6169 10.7956
210 1 -1.1104 9.34986 -0.870495 6.69009
208 1 -1.1104 9.24252 -3.53873 6.5907
338 2 2.2208 13.5759 3.56437 10.8463
211 2 2.2208 10.7676 0.463173 10.9054
212 1 -1.1104 12.1211 -3.57797 12.0606
214 1 -1.1104 12.2913 -3.45714 9.40216
216 1 -1.1104 12.1087 -0.775674 12.2873
217 2 2.2208 10.6929 -2.42997 8.11773
219 1 -1.1104 12.0986 -0.835275 9.53817
220 1 -1.1104 9.15323 -3.36045 12.1446
222 2 2.2208 7.84435 0.7322 8.23264
223 1 -1.1104 9.28816 -3.46303 9.42334
225 2 2.2208 7.69308 -2.09729 10.7692
227 1 -1.1104 9.27438 -0.724052 12.2811
228 1 -1.1104 9.18527 -0.492703 9.51477
229 2 2.2208 13.5374 0.599928 8.10398
230 2 2.2208 13.6768 -2.16646 10.7517
213 1 -1.1104 12.1404 2.03826 12.0704
215 1 -1.1104 12.0152 1.86678 9.40645
221 1 -1.1104 9.38059 2.23426 12.2385
224 1 -1.1104 9.3207 2.26504 9.42922
226 2 2.2208 7.99022 3.69091 10.7312
218 2 2.2208 10.764 3.41366 8.07007
335 2 2.2208 13.3759 9.12368 5.20504
314 1 -1.1104 9.06305 15.8923 9.24932
353 2 2.2208 7.94795 -4.87974 13.6303
202 2 2.2208 2.36193 -4.79489 8.0694
236 1 -1.1104 0.859363 4.81045 6.53575
234 1 -1.1104 0.967917 7.58623 6.53453
240 2 2.2208 5.16517 6.2659 10.9211
242 1 -1.1104 0.668051 7.65633 12.2875
244 1 -1.1104 0.930228 7.60638 9.36825
246 1 -1.1104 0.876834 4.82397 12.1577
251 1 -1.1104 0.8311 4.78836 9.28002
255 1 -1.1104 3.5576 7.63134 12.2194
256 2 2.2208 2.25085 6.2751 7.9128
258 1 -1.1104 3.70099 7.50899 9.52542
260 1 -1.1104 3.62956 4.80675 12.4158
262 1 -1.1104 3.57078 4.66675 9.49757
253 1 -1.1104 6.38491 4.90487 9.22556
245 1 -1.1104 6.52445 7.53498 9.36776
243 1 -1.1104 6.68757 7.58696 12.019
65 1 -1.1104 6.45811 10.2453 6.57908
241 2 2.2208 5.17763 11.8844 10.6993
247 1 -1.1104 0.902504 10.5382 12.1395
250 2 2.2208 5.15831 8.97061 8.04955
252 1 -1.1104 0.944549 10.4892 9.39254
257 2 2.2208 2.34298 11.9544 7.91359
259 2 2.2208 2.31982 9.00733 10.7603
261 1 -1.1104 3.78041 10.326 11.9912
263 1 -1.1104 3.75271 10.4658 9.09502
249 1 -1.1104 6.5351 10.4565 12.2336
325 2 2.2208 10.6326 14.5415 8.07808
315 1 -1.1104 9.44678 16.0539 12.2296
101 1 -1.1104 9.2143 10.4272 6.74741
53 2 2.2208 13.5334 -4.91598 2.33551
28 2 2.2208 2.14703 -5.03384 2.46329
145 1 -1.1104 11.9979 18.747 6.58642
248 1 -1.1104 6.58603 4.86403 12.1433
254 1 -1.1104 6.51116 10.37 9.37742
320 2 2.2208 7.87982 17.4068 8.01295
339 2 2.2208 13.5707 6.17436 8.00826
268 1 -1.1104 9.12475 5.1014 9.17293
271 1 -1.1104 9.42239 4.76113 11.9748
273 1 -1.1104 9.35011 7.72337 9.3912
275 2 2.2208 7.84063 6.30666 7.97291
276 2 2.2208 10.8014 6.26137 10.7637
278 1 -1.1104 12.104 7.58779 12.3206
279 1 -1.1104 12.3691 7.70436 9.27807
280 1 -1.1104 12.1775 4.93629 12.085
283 1 -1.1104 12.169 4.90338 9.47142
285 1 -1.1104 9.42017 7.58462 12.0034
341 2 2.2208 13.5523 9.05731 10.7415
264 1 -1.1104 9.11344 10.5839 9.45689
270 1 -1.1104 9.32064 10.3624 12.2839
272 2 2.2208 7.99678 9.03313 10.8719
274 2 2.2208 7.83768 11.8083 7.91951
277 2 2.2208 10.72 11.9304 10.8457
281 1 -1.1104 12.1575 10.3483 12.152
282 2 2.2208 10.5874 9.02773 7.99878
284 1 -1.1104 12.0401 10.6252 9.48675
318 1 -1.1104 9.29332 18.8315 9.43998
111 1 -1.1104 6.57515 13.0968 6.55003
297 1 -1.1104 6.31421 13.1819 12.1249
345 2 2.2208 13.6113 20.2425 10.9216
288 1 -1.1104 6.57331 18.8073 9.55826
305 1 -1.1104 3.65774 13.2561 9.28365
299 1 -1.1104 0.975196 13.3818 12.1684
294 1 -1.1104 0.972929 13.3307 9.29079
287 1 -1.1104 3.65367 13.3683 12.0359
290 1 -1.1104 6.5196 13.4909 9.32344
296 1 -1.1104 6.61541 18.7041 12.4766
306 1 -1.1104 6.5976 15.9914 12.426
309 2 2.2208 2.33877 20.1338 10.7177
308 1 -1.1104 3.61749 16.1419 12.2006
307 1 -1.1104 0.66754 15.9015 12.0967
304 1 -1.1104 3.7848 15.9436 9.4135
303 2 2.2208 2.39384 17.4247 7.90365
301 1 -1.1104 3.92747 18.7171 9.40885
300 2 2.2208 5.21399 17.3917 10.8673
298 1 -1.1104 0.940204 18.7237 12.0903
295 2 2.2208 5.07337 14.6198 7.94415
310 2 2.2208 2.30014 14.6426 10.8011
293 2 2.2208 5.12565 20.2173 7.97888
292 1 -1.1104 0.978507 16.0349 9.32709
291 1 -1.1104 1.11102 18.8816 9.18721
286 1 -1.1104 3.77409 18.8798 12.106
289 1 -1.1104 6.34096 16.0256 9.40825
364 2 2.2208 10.8889 9.00075 13.6857
316 2 2.2208 7.83739 20.2208 10.8398
156 1 -1.1104 9.33816 18.9685 6.68427
324 2 2.2208 10.7021 20.3004 8.03937
327 1 -1.1104 12.3058 18.9277 9.56084
321 1 -1.1104 9.61082 18.9835 12.4223
328 1 -1.1104 12.0806 13.3798 9.53886
323 1 -1.1104 11.8602 16.2279 9.40094
392 2 2.2208 13.4312 3.31745 -0.460218
322 1 -1.1104 9.32472 13.3121 12.2969
319 1 -1.1104 9.20156 13.2543 9.49536
326 1 -1.1104 12.0963 15.8939 12.0867
331 2 2.2208 10.6564 17.4562 10.8255
330 1 -1.1104 12.1446 13.1504 12.4037
317 2 2.2208 7.90008 14.7021 10.8583
329 1 -1.1104 12.2052 18.7798 12.2749
365 2 2.2208 7.97702 11.7161 13.5145
136 2 2.2208 -0.459028 20.233 2.3062
368 2 2.2208 2.19897 17.5056 13.6206
359 2 2.2208 2.23916 6.17744 13.5992
361 2 2.2208 2.3963 11.9166 13.602
393 2 2.2208 5.14646 6.41264 -0.437025
385 2 2.2208 4.99907 -4.91022 -0.274913
204 2 2.2208 -0.414582 -4.93 10.8195
360 2 2.2208 4.98094 8.89437 13.5379
383 2 2.2208 2.32551 3.37612 -0.258047
380 2 2.2208 13.4019 17.3717 13.4937
382 2 2.2208 2.18904 -2.08613 -0.290104
387 2 2.2208 10.5316 0.660826 -0.308201
394 2 2.2208 2.32342 9.01919 -0.24398
355 2 2.2208 7.87998 0.64174 13.4851
362 2 2.2208 13.5568 11.8961 13.5873
404 2 2.2208 5.08239 17.7261 -0.268402
349 2 2.2208 2.38238 0.676522 13.6123
356 2 2.2208 10.6715 -2.2326 13.6541
363 2 2.2208 7.86312 6.17064 13.4899
369 2 2.2208 4.94711 20.3119 13.5565
406 2 2.2208 5.18539 0.662169 16.5491
407 1 -1.1104 0.930389 -3.55299 17.8732
411 1 -1.1104 0.669341 -3.40964 15.3092
419 1 -1.1104 0.820306 -0.683105 17.9142
421 2 2.2208 5.2477 -2.17544 19.2363
423 1 -1.1104 1.0448 -0.718427 14.9902
427 1 -1.1104 3.84005 -3.60544 17.9402
429 2 2.2208 2.33609 0.664945 19.2923
430 1 -1.1104 3.70158 -3.69905 15.11
434 2 2.2208 2.2704 -2.16934 16.5987
436 1 -1.1104 3.72475 -0.774738 17.9778
437 1 -1.1104 3.78798 -0.916325 14.9942
420 1 -1.1104 6.54311 -0.765104 17.9672
415 1 -1.1104 6.59598 -3.39153 15.091
425 1 -1.1104 6.49968 -0.63417 14.8801
438 1 -1.1104 3.6293 -0.630626 20.7806
426 1 -1.1104 6.49871 -0.697715 20.6141
409 1 -1.1104 6.50486 -3.42614 17.8188
412 1 -1.1104 1.04081 -3.61448 20.7991
416 1 -1.1104 6.61505 -3.61343 20.6906
408 1 -1.1104 0.930611 2.10599 17.8724
413 1 -1.1104 0.701634 2.13649 15.2056
422 2 2.2208 5.17515 3.41147 19.1675
428 1 -1.1104 3.78151 1.81698 17.9295
432 1 -1.1104 3.57857 2.07277 15.0732
435 2 2.2208 2.25496 3.42723 16.607
417 1 -1.1104 6.45953 1.95756 15.1591
410 1 -1.1104 6.66546 1.97067 17.7204
605 2 2.2208 13.6377 17.3332 24.8037
433 1 -1.1104 3.67229 2.21959 20.7519
474 2 2.2208 10.6956 -4.95578 16.432
403 2 2.2208 2.21903 14.7979 27.6265
449 2 2.2208 10.6102 0.674323 16.4753
450 1 -1.1104 12.1635 -3.40357 17.6354
452 1 -1.1104 12.071 -3.48736 14.9801
456 1 -1.1104 12.1887 -0.742283 17.9195
457 2 2.2208 10.7848 -2.09673 19.1696
459 1 -1.1104 12.134 -0.756603 15.1055
461 1 -1.1104 9.52352 -3.65619 18.0382
463 2 2.2208 7.93798 0.587951 19.2613
464 1 -1.1104 9.39203 -3.69579 15.023
468 2 2.2208 7.89636 -2.04881 16.6625
470 1 -1.1104 9.49933 -0.873501 17.8778
471 1 -1.1104 9.30197 -0.868452 15.2367
453 1 -1.1104 12.1838 -3.58301 20.6347
477 2 2.2208 13.5822 -2.16743 16.2268
578 2 2.2208 13.5276 0.804153 19.1972
460 1 -1.1104 12.2202 -0.457808 20.8017
451 1 -1.1104 12.0885 2.08617 17.8732
454 1 -1.1104 12.0836 2.10227 14.7598
458 2 2.2208 10.7377 3.42075 19.2496
462 1 -1.1104 9.29483 1.89256 17.7845
466 1 -1.1104 9.27535 1.89228 14.9461
469 2 2.2208 7.97761 3.30575 16.4805
455 1 -1.1104 12.0917 2.22609 20.7405
467 1 -1.1104 9.25827 2.10971 20.6667
579 2 2.2208 13.4381 3.41567 16.4158
472 1 -1.1104 9.29802 -0.702666 20.6499
475 2 2.2208 7.98673 -4.93531 19.2999
667 2 2.2208 7.89683 17.3993 24.8756
668 2 2.2208 10.7764 -4.79271 22.009
482 2 2.2208 5.17552 6.08255 16.5147
484 1 -1.1104 0.919219 7.73448 17.8535
486 1 -1.1104 0.949279 7.7952 14.937
490 1 -1.1104 0.887957 4.80181 18.0284
495 1 -1.1104 0.853041 4.85208 14.9926
503 1 -1.1104 3.58612 7.65157 17.9581
504 2 2.2208 2.35651 6.34072 19.2399
506 1 -1.1104 3.72555 7.45552 14.8905
509 1 -1.1104 3.76488 4.87244 17.8434
511 1 -1.1104 3.84987 4.63494 15.302
499 1 -1.1104 6.70725 4.60968 14.9152
488 1 -1.1104 6.45018 7.35526 15.0124
485 1 -1.1104 6.46894 7.43477 17.7813
492 1 -1.1104 6.70116 4.6828 17.7584
489 1 -1.1104 6.67331 7.63023 20.4932
483 2 2.2208 5.08434 11.7372 16.3079
491 1 -1.1104 0.912909 10.4649 17.8422
494 2 2.2208 4.99165 9.22051 19.2925
497 1 -1.1104 0.795453 10.5711 14.9343
505 2 2.2208 2.33619 11.9013 19.2446
508 2 2.2208 2.29424 9.06005 16.429
510 1 -1.1104 3.56631 10.5175 17.9066
513 1 -1.1104 3.74576 10.3118 14.9688
493 1 -1.1104 6.42559 10.3459 17.7599
501 1 -1.1104 6.49968 10.0008 14.9516
496 1 -1.1104 1.09359 4.94428 20.6981
502 1 -1.1104 6.4751 10.492 20.7367
479 2 2.2208 13.6304 17.5484 19.2546
518 2 2.2208 10.8019 6.20993 16.4241
520 1 -1.1104 12.3407 7.65349 17.8698
521 1 -1.1104 12.1813 7.62086 15.1275
523 1 -1.1104 12.187 4.75836 18.0364
526 1 -1.1104 12.2442 4.92635 15.042
530 1 -1.1104 9.26208 7.50293 17.6836
531 2 2.2208 8.03586 6.08589 19.1359
533 1 -1.1104 9.34276 7.38601 14.9157
536 1 -1.1104 9.45844 4.75012 17.8294
538 1 -1.1104 9.35518 4.87578 14.8284
539 1 -1.1104 9.27407 4.80656 20.5501
542 2 2.2208 13.5161 6.22216 19.3378
534 1 -1.1104 9.25556 7.62028 20.6132
517 2 2.2208 13.4462 11.8367 19.2632
519 2 2.2208 10.5179 11.8732 16.4048
524 1 -1.1104 12.2238 10.4087 17.8709
525 2 2.2208 10.6739 8.96263 19.2679
528 1 -1.1104 12.1537 10.5455 15.0053
532 2 2.2208 7.77306 11.7616 19.3395
535 2 2.2208 7.85507 8.94799 16.4555
537 1 -1.1104 9.23522 10.4459 17.6587
540 1 -1.1104 9.38924 10.4793 14.9555
543 2 2.2208 13.6651 9.15411 16.485
522 1 -1.1104 12.0256 7.55375 20.6949
541 1 -1.1104 9.34936 10.4795 20.5506
663 1 -1.1104 12.0104 16.0033 26.3931
546 1 -1.1104 0.858174 13.2391 17.9273
550 1 -1.1104 0.821645 13.3624 15.1744
566 1 -1.1104 3.59127 13.4063 17.8878
569 1 -1.1104 3.67328 13.0882 14.9668
554 1 -1.1104 6.52637 13.0393 14.7824
570 1 -1.1104 3.72687 13.3487 20.6249
548 1 -1.1104 6.21165 13.1508 17.7206
573 2 2.2208 2.21087 14.756 16.7046
545 2 2.2208 5.11089 17.5651 16.5279
547 1 -1.1104 0.974583 18.9226 17.7917
552 1 -1.1104 0.804774 19.1133 14.9457
558 1 -1.1104 0.872411 16.2022 17.8623
560 2 2.2208 5.15783 14.8375 19.1986
561 2 2.2208 5.10183 20.355 19.2278
562 1 -1.1104 0.795053 16.211 15.2166
567 1 -1.1104 3.70833 19.1069 17.9312
568 2 2.2208 2.21058 17.598 19.1882
571 1 -1.1104 3.48798 18.8417 14.9519
574 2 2.2208 2.24234 20.393 16.495
575 1 -1.1104 3.54989 16.1527 17.7389
576 1 -1.1104 3.69902 15.9918 14.9772
559 1 -1.1104 6.54997 16.0873 17.9064
563 1 -1.1104 0.934408 15.9986 20.6095
556 1 -1.1104 6.51238 18.7966 15.1355
549 1 -1.1104 6.66627 18.8722 17.8687
564 1 -1.1104 6.63978 15.9668 15.0342
572 1 -1.1104 3.6325 18.9679 20.6437
557 1 -1.1104 6.63961 19.0194 20.8494
555 1 -1.1104 6.64864 13.2561 20.7685
481 2 2.2208 -0.463351 6.32546 16.423
582 1 -1.1104 11.9123 13.041 17.8909
584 1 -1.1104 12.0756 13.2912 15.2044
593 1 -1.1104 8.94202 13.2894 18.1417
596 1 -1.1104 9.27585 13.1282 15.1379
581 2 2.2208 10.8005 17.6063 16.5102
583 1 -1.1104 12.173 18.9735 17.9211
586 1 -1.1104 12.1205 18.848 15.1497
588 1 -1.1104 12.2732 16.0706 17.9804
589 2 2.2208 10.7785 14.7041 19.3105
590 2 2.2208 10.9272 20.2389 19.3621
591 1 -1.1104 12.3095 15.9864 15.157
594 1 -1.1104 9.30293 18.7787 17.9607
595 2 2.2208 7.82787 17.4924 19.3518
598 1 -1.1104 9.39303 18.8107 15.1328
600 2 2.2208 7.85724 14.5061 16.3689
601 2 2.2208 7.88183 20.3612 16.4068
602 1 -1.1104 9.30897 16.0924 17.7294
603 1 -1.1104 9.63695 16.033 14.9177
607 2 2.2208 10.8345 17.458 22.0133
633 1 -1.1104 12.302 18.7323 23.4272
599 1 -1.1104 9.40403 18.9722 20.6674
585 1 -1.1104 12.1308 13.1205 20.6852
701 1 -1.1104 9.35178 16.2468 23.4123
580 2 2.2208 13.5049 14.6883 22.0151
441 2 2.2208 2.39472 -4.87451 19.2453
440 2 2.2208 5.17414 -4.95696 16.4038
424 1 -1.1104 0.87772 -0.679061 20.6202
431 1 -1.1104 3.8386 -3.59493 20.7437
414 1 -1.1104 0.854054 1.94241 20.6555
641 2 2.2208 10.8623 20.2678 24.9546
609 2 2.2208 4.95892 0.771106 22.1676
610 1 -1.1104 1.08947 -3.4257 23.4564
614 1 -1.1104 0.672337 -3.42225 26.4446
618 1 -1.1104 0.843962 -0.584165 23.6525
620 2 2.2208 5.06409 -2.09403 24.8811
622 1 -1.1104 0.808756 -0.593083 26.5158
624 1 -1.1104 3.83323 -3.5764 23.3706
626 2 2.2208 2.29439 0.657296 24.775
627 1 -1.1104 3.63562 -3.42609 26.259
629 2 2.2208 2.35285 -2.16158 22.0537
631 1 -1.1104 3.75357 -0.628647 23.4323
632 1 -1.1104 3.71043 -0.639116 26.2024
616 1 -1.1104 6.46693 -3.45069 26.2833
623 1 -1.1104 6.58196 -0.754203 26.4148
619 1 -1.1104 6.35411 -0.822996 23.3716
612 1 -1.1104 6.54874 -3.39307 23.5121
418 1 -1.1104 6.37026 2.1537 20.6624
611 1 -1.1104 0.897169 2.0675 23.6129
615 1 -1.1104 0.882344 2.03342 26.3175
621 2 2.2208 5.06764 3.60233 24.9192
625 1 -1.1104 3.77239 2.09941 23.6139
628 1 -1.1104 3.65833 2.34769 26.1805
630 2 2.2208 2.3737 3.52918 22.123
613 1 -1.1104 6.46923 2.06011 23.4886
617 1 -1.1104 6.7401 2.09919 26.2562
665 1 -1.1104 9.52554 18.9267 23.5278
700 2 2.2208 7.9825 20.2997 22.2046
747 1 -1.1104 6.58304 16.0166 23.4073
636 1 -1.1104 12.1682 15.9667 23.5372
465 1 -1.1104 9.39857 -3.55478 20.6007
635 1 -1.1104 12.4142 19.0526 26.1343
645 2 2.2208 10.6126 0.769392 22.0658
646 1 -1.1104 12.1518 -3.69438 23.5966
648 1 -1.1104 12.0942 -3.52748 26.214
650 1 -1.1104 12.0539 -0.795223 23.5974
651 2 2.2208 10.7843 -2.27047 24.9976
653 1 -1.1104 12.0338 -0.626521 26.3458
654 1 -1.1104 9.32634 -3.48384 23.5506
656 2 2.2208 7.91911 0.773101 24.9526
657 1 -1.1104 9.32647 -3.56828 26.4727
659 2 2.2208 7.87473 -2.15026 22.1086
661 1 -1.1104 9.24605 -0.59238 23.3643
662 1 -1.1104 9.27385 -0.601994 26.2163
640 2 2.2208 2.49872 -4.9924 24.8298
671 2 2.2208 13.5326 -2.24233 21.9592
446 2 2.2208 13.4796 3.44832 22.1286
647 1 -1.1104 12.1384 2.16332 23.3834
649 1 -1.1104 12.1576 2.02269 26.4222
652 2 2.2208 10.6144 3.55943 24.8251
655 1 -1.1104 9.17823 2.12691 23.4018
658 1 -1.1104 9.3735 2.17763 26.2854
660 2 2.2208 7.85447 3.51476 22.1063
728 2 2.2208 13.6613 6.27079 24.8956
478 2 2.2208 13.6053 20.3016 16.3581
698 1 -1.1104 9.42875 18.7585 26.3068
664 1 -1.1104 9.35568 13.1115 23.523
398 2 2.2208 10.7515 6.19341 27.7861
669 2 2.2208 7.79031 -4.82167 24.8815
507 1 -1.1104 3.70041 7.81496 20.6979
498 1 -1.1104 0.81075 10.5252 20.7567
487 1 -1.1104 0.971569 7.70368 20.7847
500 1 -1.1104 6.56165 4.8306 20.6059
512 1 -1.1104 3.82931 4.92541 20.4747
674 2 2.2208 5.10397 6.34518 21.9776
676 1 -1.1104 0.802079 7.42704 23.4125
678 1 -1.1104 0.888742 7.65075 26.3525
680 1 -1.1104 0.892251 4.84125 23.5334
685 1 -1.1104 0.94037 4.91866 26.3632
689 1 -1.1104 3.58435 7.74548 23.5027
690 2 2.2208 2.42496 6.40736 24.9481
692 1 -1.1104 3.94049 7.8144 26.2664
694 1 -1.1104 3.90739 5.03034 23.4445
696 1 -1.1104 3.63565 5.04351 26.3155
687 1 -1.1104 6.41816 4.75308 26.5086
677 1 -1.1104 6.32233 7.56386 23.2569
679 1 -1.1104 6.59682 7.70576 26.1774
682 1 -1.1104 6.54507 4.8565 23.5423
514 1 -1.1104 3.69224 10.7242 20.7558
675 2 2.2208 5.15828 11.8427 22.0785
681 1 -1.1104 0.962849 10.1295 23.5625
684 2 2.2208 5.06472 9.12104 24.786
686 1 -1.1104 0.847587 10.491 26.5125
691 2 2.2208 2.13981 11.9303 24.879
693 2 2.2208 2.19163 9.02865 22.1522
695 1 -1.1104 3.8263 10.6369 23.5835
697 1 -1.1104 3.80813 10.403 26.3697
688 1 -1.1104 6.52759 10.2836 26.1572
683 1 -1.1104 6.59233 10.4338 23.3726
391 2 2.2208 13.5293 -2.08886 27.6971
672 2 2.2208 13.3788 0.742852 24.878
527 1 -1.1104 12.0743 4.78827 20.7806
389 2 2.2208 7.86905 3.51614 27.7356
706 1 -1.1104 9.149 4.9077 26.2276
708 1 -1.1104 9.2101 5.02298 23.3963
710 1 -1.1104 9.34339 7.68127 26.2227
712 2 2.2208 7.82434 6.22511 24.8657
713 2 2.2208 10.813 6.18236 22.0565
715 1 -1.1104 12.5187 7.38657 23.4313
716 1 -1.1104 12.1901 7.621 26.4075
717 1 -1.1104 12.1298 4.78173 23.5857
720 1 -1.1104 12.2308 4.81783 26.3586
722 1 -1.1104 9.40258 7.71041 23.4185
445 2 2.2208 13.5282 9.03309 22.1699
374 2 2.2208 13.5973 14.5846 27.7085
529 1 -1.1104 12.2137 10.286 20.6779
705 1 -1.1104 9.28716 10.3892 26.2279
707 1 -1.1104 9.27844 10.3459 23.4142
709 2 2.2208 7.92961 8.97728 22.0528
711 2 2.2208 7.66329 11.8734 24.7853
714 2 2.2208 10.669 11.6066 22.0401
718 1 -1.1104 11.9958 10.3058 23.5671
719 2 2.2208 10.6985 8.88679 24.8704
721 1 -1.1104 12.2526 10.2972 26.3891
608 1 -1.1104 12.119 13.2472 23.4075
673 1 -1.1104 9.4848 13.1743 26.4801
704 1 -1.1104 9.38286 15.8994 26.02
606 2 2.2208 13.632 20.3336 22.2373
577 1 -1.1104 3.69516 16.1537 20.5716
553 1 -1.1104 0.954713 18.8981 20.6107
565 1 -1.1104 6.50997 16.1194 20.6291
724 2 2.2208 -0.354004 20.2018 24.8974
699 2 2.2208 7.93991 14.6862 21.9858
551 1 -1.1104 0.924598 13.1846 20.6732
730 1 -1.1104 6.60196 13.1802 26.3763
739 1 -1.1104 6.56241 13.1968 23.485
746 1 -1.1104 3.80908 13.3287 26.3924
731 1 -1.1104 3.66907 13.4122 23.5048
735 1 -1.1104 0.846978 13.2141 26.3352
741 1 -1.1104 0.763345 13.3495 23.5517
736 1 -1.1104 6.60897 18.8409 23.6229
743 1 -1.1104 3.75813 18.8229 26.3947
748 1 -1.1104 0.929416 16.0577 23.3514
745 1 -1.1104 3.57689 16.0434 26.3333
744 2 2.2208 2.39667 17.6107 24.9276
750 2 2.2208 2.27303 20.4034 22.1505
749 1 -1.1104 3.68714 16.1709 23.2863
727 2 2.2208 2.40968 14.7123 21.99
729 1 -1.1104 3.88726 18.8326 23.5851
733 1 -1.1104 0.974745 18.9212 26.3112
734 1 -1.1104 0.88869 16.1338 26.3064
737 2 2.2208 5.23438 20.1803 24.8553
738 2 2.2208 5.20597 14.4965 24.9158
740 1 -1.1104 0.967761 18.8249 23.3596
742 2 2.2208 5.18913 17.4225 21.9958
732 1 -1.1104 6.552 16.006 26.1131
670 1 -1.1104 6.63811 18.958 26.4582
597 1 -1.1104 9.33512 13.2048 20.819
604 1 -1.1104 9.35338 16.0846 20.6705
592 1 -1.1104 12.2677 16.0784 20.6421
587 1 -1.1104 12.1883 18.8784 20.7383
726 2 2.2208 13.5257 11.8314 24.9909
638 2 2.2208 10.8341 14.64 24.8843
634 1 -1.1104 12.1509 13.2502 26.0409
480 2 2.2208 13.4031 14.6145 16.4472
399 2 2.2208 7.8506 9.00516 27.6513
402 2 2.2208 13.6411 8.99623 27.7877
388 2 2.2208 7.96735 -2.1791 27.6654
352 2 2.2208 4.96556 3.47635 13.7755
378 2 2.2208 10.7106 17.4585 27.7449
376 2 2.2208 8.18403 17.4686 13.8521
347 2 2.2208 2.21672 -4.91714 13.7741
372 2 2.2208 10.8721 20.2335 13.8224
400 2 2.2208 10.8833 11.7914 27.6499
395 2 2.2208 5.08601 11.9317 27.731
379 2 2.2208 7.95834 20.3675 27.6372
377 2 2.2208 8.01071 14.7711 27.6146
381 2 2.2208 5.21266 0.707159 27.6585
751 2 2.2208 5.46119 23.1556 5.19379
753 1 -1.1104 0.909757 24.7341 1.00651
754 1 -1.1104 0.927806 24.6969 3.95668
755 1 -1.1104 1.0715 21.8534 0.887872
757 2 2.2208 5.14704 25.9666 2.42258
758 1 -1.1104 0.758453 21.7709 3.5616
760 1 -1.1104 3.81769 24.5057 1.02675
761 2 2.2208 2.26208 23.1085 2.32387
763 1 -1.1104 3.74432 24.6036 3.91576
764 2 2.2208 2.53547 26.0191 5.26522
765 1 -1.1104 3.70822 21.851 0.979422
767 1 -1.1104 3.66346 21.7307 3.69904
768 1 -1.1104 3.85307 27.5477 3.67724
759 1 -1.1104 1.12351 27.3422 3.74699
766 1 -1.1104 3.90588 27.2931 0.724746
756 1 -1.1104 1.09487 27.4755 0.830763
892 1 -1.1104 1.05261 24.4224 6.52778
776 1 -1.1104 6.74064 21.7901 3.74953
777 1 -1.1104 6.49575 27.3835 3.93601
774 1 -1.1104 6.59984 21.7383 0.863169
775 1 -1.1104 6.58195 27.2973 1.09353
772 1 -1.1104 6.69608 24.6004 0.967874
893 1 -1.1104 6.70511 24.5128 6.83307
773 1 -1.1104 6.5316 24.6554 3.86704
752 2 2.2208 5.09795 28.8087 5.29752
762 2 2.2208 2.37493 28.7523 2.37814
899 1 -1.1104 3.86918 21.6708 6.48657
895 1 -1.1104 1.02949 27.3834 6.58057
894 1 -1.1104 1.01905 21.6517 6.51202
898 1 -1.1104 4.06147 24.4111 6.6328
897 1 -1.1104 6.73004 27.2779 6.87961
1070 2 2.2208 13.5765 25.8218 10.8304
778 2 2.2208 10.7869 23.0248 5.19244
780 1 -1.1104 12.3388 24.4258 0.99092
781 1 -1.1104 12.0056 24.4348 3.79399
782 1 -1.1104 12.2607 21.4916 1.04548
784 2 2.2208 10.8297 25.9994 2.44807
785 1 -1.1104 12.2374 21.6393 3.75323
787 1 -1.1104 9.46183 24.6189 0.825748
788 2 2.2208 8.14255 23.2662 2.29886
790 1 -1.1104 9.17462 24.3611 3.87551
791 2 2.2208 8.02925 25.9431 5.29337
792 1 -1.1104 9.51034 21.7545 0.989405
793 1 -1.1104 9.38706 27.4531 0.974381
794 1 -1.1104 9.51891 21.4588 3.76722
783 1 -1.1104 12.3513 27.3369 0.914083
795 1 -1.1104 9.29831 27.3265 3.85009
786 1 -1.1104 12.1658 27.125 3.7405
1113 2 2.2208 13.703 39.9106 13.3677
779 2 2.2208 10.7695 28.5656 5.32718
789 2 2.2208 8.063 29.0194 2.38143
1127 2 2.2208 10.9461 28.7385 -0.467378
926 1 -1.1104 12.2024 21.5752 6.76698
927 1 -1.1104 12.185 27.1447 6.68779
1484 1 -1.1104 6.57918 46.9507 3.85488
928 1 -1.1104 9.29757 24.3738 6.66964
929 1 -1.1104 9.16714 21.7149 6.53618
1135 2 2.2208 10.9533 34.397 -0.349264
1674 1 -1.1104 6.40761 46.9169 6.53249
800 1 -1.1104 1.00275 30.1159 0.841329
803 1 -1.1104 0.974098 30.1991 3.68971
806 1 -1.1104 0.959385 33.0609 0.942998
807 2 2.2208 5.12289 31.591 2.37401
809 1 -1.1104 0.80526 32.8215 3.70175
811 1 -1.1104 3.88091 30.0801 0.913397
814 1 -1.1104 3.90075 30.1104 3.7741
816 2 2.2208 2.31225 31.3683 5.08971
818 1 -1.1104 3.71518 32.9881 1.00686
819 1 -1.1104 3.84069 32.9573 3.76535
823 1 -1.1104 6.70866 30.334 0.960628
810 1 -1.1104 6.71077 33.0034 3.58928
953 1 -1.1104 1.03611 32.8803 6.53698
825 1 -1.1104 6.60653 33.0702 0.902805
824 1 -1.1104 6.75129 30.2784 3.62202
951 1 -1.1104 6.42703 30.215 6.58698
799 2 2.2208 5.43665 34.2751 5.17908
801 1 -1.1104 1.14126 35.8782 0.94931
804 1 -1.1104 0.947446 35.5545 3.76227
808 2 2.2208 5.31963 37.197 2.4228
812 1 -1.1104 3.8835 35.6632 1.25605
813 2 2.2208 2.46762 34.3818 2.56166
815 1 -1.1104 4.08099 35.8343 4.04595
817 2 2.2208 2.42292 37.0538 5.19938
956 1 -1.1104 3.86625 35.6199 6.64066
802 1 -1.1104 6.77528 35.789 1.13678
949 1 -1.1104 0.847326 30.1862 6.61897
955 1 -1.1104 3.57626 30.1865 6.65675
954 1 -1.1104 6.74862 32.9287 6.64149
950 1 -1.1104 1.02522 35.6995 6.66484
1109 2 2.2208 8.34195 45.5302 13.554
1673 1 -1.1104 0.793018 47.1337 6.72868
821 2 2.2208 -0.348684 37.1175 2.31039
805 1 -1.1104 6.82782 35.7451 3.75603