ITEM: TIMESTEP
60000
ITEM: NUMBER OF ATOMS
17732
ITEM: BOX BOUNDS pp pp pp
-4.1836685189109740e-01 2.7758366851892106e+01
-4.7613879986474679e+00 3.3284138799864024e+02
-3.9224075034921757e-01 2.7732240750349373e+01
ITEM: ATOMS id type q x y z
1 2 2.2208 5.42104 0.762808 5.24697
2 1 -1.1104 1.43211 -3.33542 1.12142
6 1 -1.1104 1.24804 -3.23298 3.99589
10 1 -1.1104 1.21782 -0.487416 1.04757
12 2 2.2208 5.52219 -1.9597 2.32071
14 1 -1.1104 1.33427 -0.627382 3.93047
16 1 -1.1104 4.1942 -3.44868 0.947153
18 2 2.2208 2.62737 0.885421 2.29056
19 1 -1.1104 4.17221 -3.24934 3.86377
21 2 2.2208 2.7887 -2.00219 5.31092
23 1 -1.1104 4.13059 -0.548746 1.04208
24 1 -1.1104 3.86845 -0.55664 3.78336
3 1 -1.1104 1.20612 2.36875 0.9768
7 1 -1.1104 1.04031 2.28866 3.82552
17 1 -1.1104 4.00885 2.41824 1.18846
20 1 -1.1104 4.20252 2.45924 3.86846
22 2 2.2208 2.72748 3.73279 5.23464
13 2 2.2208 5.42218 3.77081 2.51689
27 2 2.2208 -0.379071 3.60815 2.53104
26 2 2.2208 -0.150903 0.865379 5.20808
25 2 2.2208 -0.153488 -1.89967 2.5524
231 2 2.2208 8.54825 -4.64177 8.09687
170 1 -1.1104 1.21174 -0.530023 6.83682
203 2 2.2208 5.6509 -4.69912 10.9614
333 2 2.2208 13.7691 14.8161 10.7162
52 2 2.2208 11.2923 -4.48162 5.17797
312 2 2.2208 -0.148202 17.8473 10.8122
8 1 -1.1104 6.92357 -3.37843 3.95474
4 1 -1.1104 6.90388 -3.42946 1.04415
15 1 -1.1104 6.58585 -0.628018 4.03749
5 1 -1.1104 6.7659 2.15778 1.10067
11 1 -1.1104 6.81149 -0.560274 1.03151
9 1 -1.1104 6.80057 2.23744 3.82975
31 2 2.2208 11.0905 0.90764 5.10391
32 1 -1.1104 12.3869 -3.17415 1.08525
34 1 -1.1104 12.6767 -3.36494 3.80128
36 1 -1.1104 12.4147 -0.470633 0.91599
37 2 2.2208 11.1728 -1.98324 2.49018
39 1 -1.1104 12.8697 -0.664612 3.62761
40 1 -1.1104 9.71145 -3.33536 0.988884
42 2 2.2208 8.11393 0.945862 2.52554
43 1 -1.1104 9.85793 -3.28319 3.93139
45 2 2.2208 8.41352 -1.9299 5.2342
47 1 -1.1104 9.5059 -0.549096 1.23079
48 1 -1.1104 9.80897 -0.442438 3.84869
33 1 -1.1104 12.403 2.21127 0.988275
35 1 -1.1104 12.4796 2.46379 3.80467
41 1 -1.1104 9.68002 2.39531 0.997844
44 1 -1.1104 9.73247 2.2839 3.72904
46 2 2.2208 8.10042 3.61392 5.21288
38 2 2.2208 11.0555 3.76003 2.40389
171 1 -1.1104 6.88393 -0.424597 6.84418
205 1 -1.1104 12.5586 -3.27593 6.6676
208 1 -1.1104 9.91347 -3.43223 6.64945
210 1 -1.1104 9.60247 -0.549861 6.64473
206 1 -1.1104 12.7669 2.19787 6.66929
169 1 -1.1104 6.95677 2.28713 6.78012
381 2 2.2208 5.37463 0.70179 -0.358185
378 2 2.2208 10.9692 17.6908 -0.303565
401 2 2.2208 -0.316732 17.7516 -0.398816
296 1 -1.1104 6.81193 19.1486 12.3202
382 2 2.2208 2.74621 -2.07286 -0.378444
83 2 2.2208 -0.217742 12.177 5.24137
81 2 2.2208 -0.195805 6.52598 5.19843
54 2 2.2208 5.54325 6.57864 5.26703
56 1 -1.1104 1.08007 7.91902 1.03388
58 1 -1.1104 1.30454 7.98453 3.90658
60 1 -1.1104 1.29662 4.87998 1.02895
67 1 -1.1104 1.20151 5.11931 3.85345
71 1 -1.1104 3.93537 8.03879 0.843848
72 2 2.2208 2.68205 6.5168 2.38435
74 1 -1.1104 4.00335 8.00735 3.79015
76 1 -1.1104 4.04079 5.45922 1.03829
79 1 -1.1104 4.06434 5.21456 3.72699
55 2 2.2208 5.31796 12.052 5.27795
61 1 -1.1104 1.23737 10.9056 0.915744
66 2 2.2208 5.45408 9.29109 2.34854
68 1 -1.1104 1.37223 10.8584 3.87186
73 2 2.2208 2.5559 12.2146 2.39274
75 2 2.2208 2.68968 9.347 5.21489
77 1 -1.1104 4.05302 10.7289 0.965709
80 1 -1.1104 4.13192 10.7769 3.7319
82 2 2.2208 -0.232844 9.37668 2.60571
236 1 -1.1104 1.07375 5.0948 6.70933
235 1 -1.1104 6.7506 8.01102 6.67719
237 1 -1.1104 7.02364 5.20987 6.7359
388 2 2.2208 8.33972 -1.92549 -0.38318
297 1 -1.1104 6.80442 13.6424 12.2869
59 1 -1.1104 6.81022 7.83159 3.69086
64 1 -1.1104 6.79437 10.8756 1.18002
70 1 -1.1104 6.81832 10.7722 3.97899
69 1 -1.1104 6.96794 5.1739 3.89937
63 1 -1.1104 6.86932 4.93973 1.02748
57 1 -1.1104 6.91004 7.83174 0.873424
84 2 2.2208 11.0379 6.39645 5.31257
86 1 -1.1104 12.7026 7.93997 1.16119
87 1 -1.1104 12.6356 7.80617 3.9993
88 1 -1.1104 12.4741 5.15787 1.08165
92 1 -1.1104 12.6784 5.16577 3.87217
94 1 -1.1104 9.75975 7.88155 0.849162
95 2 2.2208 8.32934 6.42696 2.3438
97 1 -1.1104 9.72822 7.87093 3.7363
99 1 -1.1104 9.65992 5.14983 0.849275
102 1 -1.1104 9.5322 5.03549 3.77569
85 2 2.2208 11.0832 12.0381 5.18961
89 1 -1.1104 12.5121 10.7039 0.958714
91 2 2.2208 11.206 9.15757 2.35971
93 1 -1.1104 12.5485 10.597 3.59576
96 2 2.2208 8.24602 12.138 2.45523
98 2 2.2208 8.33908 9.2173 5.18742
100 1 -1.1104 9.78546 10.6185 0.898483
103 1 -1.1104 9.83297 10.7745 3.67651
327 1 -1.1104 12.6204 19.1278 9.65225
266 1 -1.1104 12.4605 4.95328 6.77722
90 1 -1.1104 12.414 10.7123 6.4064
137 2 2.2208 -0.205927 17.6667 5.09159
135 2 2.2208 -0.283906 14.8582 2.39683
107 1 -1.1104 1.19664 13.6448 0.794149
113 1 -1.1104 1.09146 13.6362 3.59803
123 1 -1.1104 4.10182 13.6025 0.948925
128 1 -1.1104 4.00889 13.3396 3.88036
130 2 2.2208 2.63372 14.981 5.17348
106 2 2.2208 5.36825 17.8645 5.27094
109 1 -1.1104 1.14634 19.2235 0.767167
114 1 -1.1104 1.18881 19.2977 3.64248
116 1 -1.1104 1.27942 16.4528 1.01036
119 2 2.2208 5.51936 14.9771 2.49518
120 2 2.2208 5.52251 20.7174 2.34159
121 1 -1.1104 1.21792 16.3753 3.879
125 1 -1.1104 4.03921 19.1662 1.0408
127 2 2.2208 2.49159 17.8271 2.34896
129 1 -1.1104 3.88419 19.2311 3.66359
131 2 2.2208 2.60934 20.5378 5.17786
132 1 -1.1104 3.91875 16.3683 1.01472
134 1 -1.1104 4.07017 16.3587 3.7578
117 1 -1.1104 1.09763 16.5344 6.52684
133 1 -1.1104 3.89744 16.39 6.56343
145 1 -1.1104 12.3602 19.132 6.63171
154 1 -1.1104 9.59306 13.3618 6.60898
317 2 2.2208 8.22125 14.9042 10.8092
136 2 2.2208 -0.156949 20.6377 2.38348
115 1 -1.1104 6.71869 13.491 3.87327
140 1 -1.1104 6.69924 16.3524 1.17671
139 1 -1.1104 6.68478 19.2036 3.71622
110 1 -1.1104 6.94421 13.7226 0.944078
122 1 -1.1104 6.8037 16.384 3.87676
138 1 -1.1104 7.027 19.18 1.01503
142 1 -1.1104 12.4691 13.6871 0.89823
146 1 -1.1104 12.3489 13.5025 3.85616
153 1 -1.1104 9.6073 13.45 1.1096
158 1 -1.1104 9.69782 13.5328 4.01637
163 1 -1.1104 9.5211 16.291 6.6214
150 2 2.2208 10.9493 14.9976 2.42976
141 2 2.2208 11.0977 17.6897 5.14122
144 1 -1.1104 12.4898 19.1592 1.10086
147 1 -1.1104 12.2944 19.2408 3.76114
148 1 -1.1104 12.1963 16.3992 1.08
151 2 2.2208 10.9632 20.5875 2.4908
152 1 -1.1104 12.42 16.3044 3.7345
155 1 -1.1104 9.54416 19.1959 1.05601
157 2 2.2208 8.14433 17.7507 2.45016
159 1 -1.1104 9.53767 19.15 4.00009
160 2 2.2208 8.21843 14.6863 5.26891
161 2 2.2208 8.49769 20.4879 5.39964
162 1 -1.1104 9.56696 16.3248 0.848927
164 1 -1.1104 9.55222 16.4188 3.75474
111 1 -1.1104 6.73419 13.4662 6.7805
318 1 -1.1104 9.75794 19.0408 9.41444
156 1 -1.1104 9.82125 19.1347 6.74369
173 1 -1.1104 4.30721 2.16164 6.5393
174 1 -1.1104 4.23851 -0.435902 6.85618
369 2 2.2208 5.4183 20.5023 13.6542
199 2 2.2208 -0.184261 3.75831 8.08185
167 1 -1.1104 1.41751 2.23841 6.78098
172 1 -1.1104 4.07103 -3.35294 6.58446
166 1 -1.1104 1.31884 -3.4935 6.76929
175 2 2.2208 5.63337 0.957448 10.9632
176 1 -1.1104 1.57305 -3.33421 12.1988
180 1 -1.1104 1.33362 -3.36151 9.53622
184 1 -1.1104 1.38684 -0.554547 12.4615
186 2 2.2208 5.47706 -1.82481 8.06562
188 1 -1.1104 1.61393 -0.639866 9.52582
190 1 -1.1104 4.26584 -3.26818 12.2043
192 2 2.2208 2.73965 0.836129 8.15786
193 1 -1.1104 4.31014 -3.45155 9.37662
195 2 2.2208 2.89424 -1.88443 10.9756
197 1 -1.1104 4.29069 -0.404625 12.3992
198 1 -1.1104 4.45017 -0.46594 9.7225
177 1 -1.1104 1.20965 2.36386 12.3876
181 1 -1.1104 1.35465 2.14202 9.55608
187 2 2.2208 5.33086 3.6481 8.1053
191 1 -1.1104 3.84864 2.19958 12.1896
194 1 -1.1104 4.07921 2.35336 9.50478
196 2 2.2208 2.59866 3.76466 10.9236
201 2 2.2208 0.0286927 0.866034 10.969
200 2 2.2208 -0.0127532 -2.05936 7.99601
328 1 -1.1104 12.3422 13.4699 9.38078
290 1 -1.1104 6.65057 13.6415 9.4328
209 1 -1.1104 9.74172 2.30296 6.77102
168 1 -1.1104 7.00532 -3.3394 6.73588
207 1 -1.1104 12.3191 -0.482352 6.44866
182 1 -1.1104 7.16347 -3.47608 9.69383
189 1 -1.1104 7.10522 -0.539751 9.55251
185 1 -1.1104 7.12139 -0.386888 12.4329
179 1 -1.1104 6.7166 2.34349 12.2533
183 1 -1.1104 6.9032 2.29134 9.57666
178 1 -1.1104 6.93758 -3.22505 12.3762
211 2 2.2208 11.4107 0.881047 10.8436
212 1 -1.1104 12.7232 -3.47886 12.1875
214 1 -1.1104 12.7561 -3.43908 9.38837
216 1 -1.1104 12.6006 -0.577102 12.1387
217 2 2.2208 11.1532 -1.89984 8.08457
219 1 -1.1104 12.5241 -0.693607 9.45245
220 1 -1.1104 9.78559 -3.37421 12.4114
222 2 2.2208 8.33314 0.851896 8.1654
223 1 -1.1104 9.82887 -3.1077 9.58606
225 2 2.2208 8.5295 -1.86231 10.9637
227 1 -1.1104 9.89029 -0.314102 12.3937
228 1 -1.1104 9.78242 -0.370983 9.4056
213 1 -1.1104 12.5398 2.28295 12.271
215 1 -1.1104 12.6044 2.31491 9.37534
221 1 -1.1104 9.68652 2.27602 12.5194
224 1 -1.1104 9.73442 2.45262 9.785
226 2 2.2208 8.36724 3.65657 10.9144
218 2 2.2208 11.1675 3.60614 8.07834
149 1 -1.1104 12.3728 16.2515 6.67722
314 1 -1.1104 9.4149 16.3285 9.18235
78 1 -1.1104 4.25428 10.5621 6.59553
342 2 2.2208 -0.174459 12.0669 10.8502
239 1 -1.1104 4.06314 5.02095 6.57031
234 1 -1.1104 1.14412 8.04377 6.77014
343 2 2.2208 -0.257689 9.43592 8.03532
62 1 -1.1104 1.37494 10.5495 6.82803
238 1 -1.1104 3.91344 7.88049 6.76249
240 2 2.2208 5.5723 6.56011 10.8675
242 1 -1.1104 1.22905 7.98 12.2508
244 1 -1.1104 1.09762 7.90075 9.47786
246 1 -1.1104 1.38297 5.05526 12.333
251 1 -1.1104 1.28385 5.13829 9.51154
255 1 -1.1104 4.06207 7.8031 12.2651
256 2 2.2208 2.64623 6.58357 8.1068
258 1 -1.1104 4.20074 7.92136 9.63851
260 1 -1.1104 4.11375 5.02887 12.213
262 1 -1.1104 4.27537 5.19351 9.35647
241 2 2.2208 5.37345 12.202 10.8105
247 1 -1.1104 1.08051 10.7688 12.3314
250 2 2.2208 5.6565 9.37207 8.18413
252 1 -1.1104 1.23429 10.801 9.47377
257 2 2.2208 2.57014 12.0674 8.20505
259 2 2.2208 2.56815 9.22722 10.8485
261 1 -1.1104 3.75622 10.7718 12.2209
263 1 -1.1104 4.06847 10.7356 9.56571
344 2 2.2208 -0.250805 6.60307 10.7319
326 1 -1.1104 12.3672 16.3524 12.0314
65 1 -1.1104 7.12407 10.8014 6.78081
267 1 -1.1104 9.49406 7.82331 6.70287
269 1 -1.1104 9.67137 4.9664 6.58869
101 1 -1.1104 9.68523 10.5475 6.50763
253 1 -1.1104 7.09153 5.13455 9.47348
245 1 -1.1104 7.01128 7.94149 9.41395
248 1 -1.1104 6.82342 5.3246 12.3029
254 1 -1.1104 6.86183 10.7149 9.63703
249 1 -1.1104 6.60546 10.7647 12.2568
265 1 -1.1104 12.4717 7.79107 6.77198
243 1 -1.1104 7.03665 8.01456 12.3128
268 1 -1.1104 9.65022 5.21266 9.3794
271 1 -1.1104 9.71646 5.02235 12.3598
273 1 -1.1104 9.99817 7.9606 9.43896
275 2 2.2208 8.2592 6.50914 8.13361
276 2 2.2208 11.1007 6.49931 10.8184
278 1 -1.1104 12.5531 7.84701 12.1684
279 1 -1.1104 12.5523 8.03954 9.59064
280 1 -1.1104 12.486 5.06319 12.2891
283 1 -1.1104 12.5928 5.06457 9.45717
285 1 -1.1104 9.70898 7.95606 12.3684
264 1 -1.1104 9.522 10.8982 9.52747
270 1 -1.1104 9.69363 10.7306 12.4147
272 2 2.2208 8.2298 9.34307 10.8788
274 2 2.2208 8.34676 12.1039 8.097
277 2 2.2208 11.0368 12.1166 10.9761
281 1 -1.1104 12.4002 10.6475 12.2846
282 2 2.2208 11.0963 9.38462 8.04935
284 1 -1.1104 12.4531 10.8177 9.28267
118 1 -1.1104 6.71344 16.2557 6.56999
126 1 -1.1104 3.86245 19.1782 6.58707
112 1 -1.1104 6.95945 19.1661 6.54456
124 1 -1.1104 3.76546 13.4291 6.60623
108 1 -1.1104 1.11109 13.4495 6.59586
302 1 -1.1104 1.05527 19.1732 6.69415
305 1 -1.1104 3.93391 13.6294 9.50379
299 1 -1.1104 1.27138 13.3861 12.1334
294 1 -1.1104 1.11994 13.6922 9.48787
287 1 -1.1104 3.97163 13.5478 12.1865
309 2 2.2208 2.60967 20.5721 10.7941
308 1 -1.1104 4.18477 16.4011 12.2424
307 1 -1.1104 1.33321 16.4324 12.2205
304 1 -1.1104 3.69894 16.6287 9.48465
303 2 2.2208 2.43208 17.8704 8.10457
301 1 -1.1104 3.99958 19.3324 9.37292
300 2 2.2208 5.50937 17.8182 10.8685
298 1 -1.1104 1.25471 19.2595 12.1481
295 2 2.2208 5.30905 15.0319 8.13824
310 2 2.2208 2.53457 14.8713 10.8688
293 2 2.2208 5.33198 20.7275 8.21359
292 1 -1.1104 1.10669 16.3336 9.46815
291 1 -1.1104 1.14488 19.4071 9.4568
286 1 -1.1104 4.01708 19.2304 12.0952
311 2 2.2208 -0.0470854 20.769 8.00764
322 1 -1.1104 9.54188 13.4902 12.1068
321 1 -1.1104 9.67436 19.108 12.2456
315 1 -1.1104 9.56824 16.2839 12.0956
323 1 -1.1104 12.2625 16.3625 9.38653
320 2 2.2208 8.25674 17.7854 7.8098
329 1 -1.1104 12.4479 19.1541 12.2717
325 2 2.2208 10.8746 14.8857 7.93657
316 2 2.2208 8.29063 20.5416 10.805
330 1 -1.1104 12.3565 13.6634 12.2363
331 2 2.2208 10.8954 17.6149 10.6647
319 1 -1.1104 9.53846 13.6412 9.43146
143 1 -1.1104 12.3776 13.3814 6.72535
289 1 -1.1104 6.69116 16.4627 9.35345
306 1 -1.1104 6.87638 16.3966 12.2268
288 1 -1.1104 6.98283 19.2428 9.37019
324 2 2.2208 11.1242 20.5906 8.0947
352 2 2.2208 5.58104 3.62399 13.5784
387 2 2.2208 11.0908 0.934927 -0.354654
351 2 2.2208 -0.156518 14.9673 13.6342
403 2 2.2208 2.65628 14.8748 -0.340126
397 2 2.2208 -0.192675 6.41247 -0.267905
361 2 2.2208 2.64109 12.1028 13.65
350 2 2.2208 -0.15932 20.7371 13.4727
356 2 2.2208 11.0863 -1.8938 13.7227
390 2 2.2208 10.9892 -4.77171 -0.312639
404 2 2.2208 5.368 17.8409 -0.167074
406 2 2.2208 5.59009 0.818626 16.4885
407 1 -1.1104 1.31607 -3.27611 17.8776
411 1 -1.1104 1.44868 -3.32134 15.1166
419 1 -1.1104 1.38476 -0.623443 18.048
421 2 2.2208 5.46915 -1.8405 19.3514
423 1 -1.1104 1.23495 -0.563162 15.1631
427 1 -1.1104 4.06468 -3.34131 17.9526
429 2 2.2208 2.6151 0.893249 19.2889
430 1 -1.1104 4.45301 -3.34304 15.1919
434 2 2.2208 2.69778 -1.92732 16.4687
436 1 -1.1104 4.18765 -0.688574 17.9056
437 1 -1.1104 4.08181 -0.600396 15.1339
408 1 -1.1104 1.20175 2.27338 18.0818
413 1 -1.1104 1.30717 2.10876 15.3044
422 2 2.2208 5.3787 3.57926 19.1742
428 1 -1.1104 4.16498 2.19089 17.854
432 1 -1.1104 4.09637 2.14486 15.2616
435 2 2.2208 2.80519 3.59358 16.544
442 2 2.2208 -0.315526 0.886747 16.6011
544 2 2.2208 -0.24664 3.75656 19.2909
443 2 2.2208 -0.0822655 -2.12205 19.3682
376 2 2.2208 8.24321 17.7252 13.7012
668 2 2.2208 11.1156 -4.69311 22.2174
476 2 2.2208 -0.360114 20.6527 19.259
355 2 2.2208 8.30937 0.908946 13.8029
359 2 2.2208 2.73773 6.39373 13.7049
368 2 2.2208 2.55548 17.7342 13.6384
409 1 -1.1104 6.91676 -3.18087 18.0034
420 1 -1.1104 7.03403 -0.421627 17.9772
415 1 -1.1104 7.07895 -3.51258 15.2131
425 1 -1.1104 6.95366 -0.514888 15.2557
410 1 -1.1104 6.98428 2.39358 17.7516
417 1 -1.1104 6.91122 2.2687 14.9038
449 2 2.2208 11.2051 0.976347 16.4422
450 1 -1.1104 12.6112 -3.39298 17.9544
452 1 -1.1104 12.583 -3.31835 14.995
456 1 -1.1104 12.7261 -0.46739 17.8721
457 2 2.2208 11.2675 -2.01107 19.4635
459 1 -1.1104 12.652 -0.52721 15.1651
461 1 -1.1104 9.74874 -3.24655 18.1228
463 2 2.2208 8.43484 0.86489 19.3206
464 1 -1.1104 9.74678 -3.40389 15.1695
468 2 2.2208 8.31016 -1.96254 16.6884
470 1 -1.1104 9.83845 -0.45203 18.0525
471 1 -1.1104 9.88622 -0.377244 15.1023
451 1 -1.1104 12.5082 2.18822 17.9294
454 1 -1.1104 12.6831 2.21781 14.8304
458 2 2.2208 11.1516 3.59704 19.3461
462 1 -1.1104 9.76116 2.48771 18.0682
466 1 -1.1104 9.83018 2.39324 15.4414
469 2 2.2208 8.28602 3.76216 16.5156
465 1 -1.1104 9.73712 -3.31094 20.8279
460 1 -1.1104 12.5844 -0.457537 20.7882
700 2 2.2208 8.26977 20.6823 22.245
416 1 -1.1104 6.95096 -3.36451 20.8561
453 1 -1.1104 12.7969 -3.44058 20.8292
348 2 2.2208 5.51856 -1.96773 13.7261
639 2 2.2208 5.66448 -4.76458 22.2343
475 2 2.2208 8.41034 -4.55341 19.437
346 2 2.2208 -0.0472984 -1.97566 13.6483
481 2 2.2208 -0.107272 6.50498 16.5058
482 2 2.2208 5.43775 6.50156 16.4589
484 1 -1.1104 1.10378 7.9432 17.8179
486 1 -1.1104 1.38448 7.87303 15.0509
490 1 -1.1104 1.27543 5.06991 17.9205
495 1 -1.1104 1.24607 4.97111 15.2444
503 1 -1.1104 3.91765 7.95607 17.7337
504 2 2.2208 2.63585 6.4887 19.3097
506 1 -1.1104 4.11777 7.7219 15.0402
509 1 -1.1104 3.93633 5.00906 17.8869
511 1 -1.1104 4.11748 5.11242 14.902
496 1 -1.1104 1.28902 5.12375 20.7248
483 2 2.2208 5.23241 12.2904 16.4436
491 1 -1.1104 1.04084 10.7729 17.8958
494 2 2.2208 5.38672 9.33685 19.3307
497 1 -1.1104 1.33345 10.7157 15.0988
505 2 2.2208 2.55168 12.1872 19.2349
508 2 2.2208 2.61823 9.35217 16.3836
510 1 -1.1104 3.86278 10.7437 17.9873
513 1 -1.1104 3.8482 10.6882 14.9582
516 2 2.2208 -0.167447 12.2042 16.5225
515 2 2.2208 -0.169254 9.23083 19.2416
487 1 -1.1104 1.16759 7.89661 20.6202
512 1 -1.1104 4.0334 5.0655 20.754
373 2 2.2208 11.0768 15 13.5896
485 1 -1.1104 6.61017 7.93121 17.8825
501 1 -1.1104 6.53122 10.9466 15.0881
492 1 -1.1104 6.72437 5.28961 17.7814
499 1 -1.1104 6.84915 5.0245 15.0606
488 1 -1.1104 6.85974 8.12504 14.8994
493 1 -1.1104 6.61062 10.8006 17.8443
518 2 2.2208 11.1016 6.60172 16.4342
520 1 -1.1104 12.455 8.02362 17.7371
521 1 -1.1104 12.5546 7.89342 14.7112
523 1 -1.1104 12.5203 5.00032 17.9124
526 1 -1.1104 12.5103 5.1128 15.0641
530 1 -1.1104 9.33289 8.05391 17.8418
531 2 2.2208 8.11257 6.41219 19.3136
533 1 -1.1104 9.7597 8.05629 15.1959
536 1 -1.1104 9.67049 5.33689 17.7911
538 1 -1.1104 9.55078 5.3039 15.0648
519 2 2.2208 10.8345 11.9142 16.4427
524 1 -1.1104 12.4498 10.8806 17.9099
525 2 2.2208 11.1018 9.23406 19.2374
528 1 -1.1104 12.5612 10.7668 15.15
532 2 2.2208 8.1821 11.9885 19.3929
535 2 2.2208 7.97238 9.42109 16.6297
537 1 -1.1104 9.4856 10.575 17.9388
540 1 -1.1104 9.31526 10.6667 15.0442
527 1 -1.1104 12.5002 5.06906 20.7263
534 1 -1.1104 9.48359 7.84397 20.7487
500 1 -1.1104 6.75917 4.88007 20.7203
730 1 -1.1104 6.81733 13.4411 26.1729
363 2 2.2208 8.31114 6.657 13.744
439 2 2.2208 -0.120463 -4.66073 16.6175
640 2 2.2208 2.75991 -4.8284 25.1334
546 1 -1.1104 1.26349 13.4937 17.7551
550 1 -1.1104 1.142 13.5411 14.8819
566 1 -1.1104 3.92516 13.5417 17.8393
569 1 -1.1104 3.83552 13.515 15.0147
573 2 2.2208 2.43479 15.0342 16.3228
545 2 2.2208 5.20675 17.6147 16.5418
547 1 -1.1104 1.29662 19.2293 17.8598
552 1 -1.1104 1.07224 18.952 14.9137
558 1 -1.1104 1.06187 16.4387 17.7384
560 2 2.2208 5.33214 14.9275 19.2733
561 2 2.2208 5.27376 20.5924 19.2649
562 1 -1.1104 1.20241 16.3159 15.0099
567 1 -1.1104 4.02682 19.1544 17.9615
568 2 2.2208 2.46433 17.8113 19.439
571 1 -1.1104 3.79965 19.2155 15.0307
574 2 2.2208 2.56701 20.6524 16.5017
575 1 -1.1104 3.768 16.1841 18.0613
576 1 -1.1104 3.79005 16.1321 15.0553
572 1 -1.1104 3.85552 19.0716 20.9083
448 2 2.2208 -0.263453 14.9802 19.3578
396 2 2.2208 -0.0970341 12.237 27.6271
570 1 -1.1104 4.08658 13.6302 20.6833
360 2 2.2208 5.31895 9.46934 13.6569
557 1 -1.1104 6.74952 19.2478 20.7026
440 2 2.2208 5.64268 -4.6619 16.5575
732 1 -1.1104 6.92837 16.2304 26.3548
634 1 -1.1104 12.7039 13.2609 26.2911
554 1 -1.1104 6.78949 13.7539 15.0442
556 1 -1.1104 6.65966 19.0823 14.9974
548 1 -1.1104 6.62458 13.5591 17.898
564 1 -1.1104 6.94177 16.383 15.0331
549 1 -1.1104 6.8207 19.0836 17.9909
559 1 -1.1104 6.93119 16.2825 17.8185
582 1 -1.1104 12.4562 13.6223 17.8742
584 1 -1.1104 12.535 13.5008 15.1311
593 1 -1.1104 9.39134 13.5285 17.976
596 1 -1.1104 9.61927 13.3898 15.1623
581 2 2.2208 10.9168 17.7043 16.6083
583 1 -1.1104 12.4858 19.1752 18.0229
586 1 -1.1104 12.4945 18.9489 15.1893
588 1 -1.1104 12.4525 16.4194 17.9308
589 2 2.2208 10.9408 14.9498 19.3668
590 2 2.2208 10.9435 20.5419 19.2967
591 1 -1.1104 12.5448 16.1673 15.0641
594 1 -1.1104 9.58407 18.9662 17.9653
595 2 2.2208 8.22147 17.7029 19.3075
598 1 -1.1104 9.65117 19.1236 15.037
600 2 2.2208 8.29282 14.8489 16.5038
601 2 2.2208 8.1603 20.5603 16.5973
602 1 -1.1104 9.7635 16.2538 17.9204
603 1 -1.1104 9.69045 16.1884 14.9119
555 1 -1.1104 6.86773 13.5761 20.6575
587 1 -1.1104 12.5488 19.2401 20.7585
641 2 2.2208 11.246 20.4725 24.9262
701 1 -1.1104 9.62747 16.3543 23.3516
608 1 -1.1104 12.4885 13.6196 23.5888
644 2 2.2208 -0.229642 3.77802 24.8798
642 2 2.2208 -0.102104 -1.89791 24.9171
438 1 -1.1104 4.08565 -0.61861 20.7444
433 1 -1.1104 4.12081 2.33894 20.6527
414 1 -1.1104 1.30904 2.12787 20.7726
412 1 -1.1104 1.08906 -3.37366 20.9095
424 1 -1.1104 1.40157 -0.673331 20.8613
643 2 2.2208 -0.140001 0.876805 22.1324
431 1 -1.1104 4.02579 -3.39958 20.7777
609 2 2.2208 5.29643 0.80026 22.1501
610 1 -1.1104 1.36898 -3.43263 23.8865
614 1 -1.1104 1.50583 -3.53385 26.7263
618 1 -1.1104 1.20982 -0.468199 23.6897
620 2 2.2208 5.54426 -2.00493 25.0004
622 1 -1.1104 1.26418 -0.701641 26.3958
624 1 -1.1104 4.19631 -3.37336 23.6628
626 2 2.2208 2.55794 0.972497 24.9356
627 1 -1.1104 4.20743 -3.38224 26.4388
629 2 2.2208 2.72076 -2.07724 22.3179
631 1 -1.1104 4.04398 -0.500665 23.5761
632 1 -1.1104 4.23211 -0.61391 26.4773
611 1 -1.1104 1.09286 2.33096 23.6742
615 1 -1.1104 1.18201 2.18906 26.3406
621 2 2.2208 5.50943 3.58791 24.9885
625 1 -1.1104 3.9498 2.17609 23.6993
628 1 -1.1104 4.00261 2.06133 26.4332
630 2 2.2208 2.68442 3.72345 22.1265
673 1 -1.1104 9.81659 13.5506 26.2758
665 1 -1.1104 9.86056 19.0917 23.579
447 2 2.2208 -0.207623 17.871 16.4499
418 1 -1.1104 6.88539 2.16071 20.63
426 1 -1.1104 6.9786 -0.470252 20.6562
467 1 -1.1104 9.52911 2.32748 20.676
472 1 -1.1104 9.92348 -0.564267 20.8262
455 1 -1.1104 12.5443 2.21503 20.7053
619 1 -1.1104 6.84878 -0.638181 23.7087
616 1 -1.1104 6.93417 -3.50448 26.3619
617 1 -1.1104 6.78456 2.12953 26.2858
612 1 -1.1104 7.04815 -3.22412 23.5436
613 1 -1.1104 6.95825 2.11033 23.5309
623 1 -1.1104 7.02511 -0.708702 26.3728
645 2 2.2208 11.0999 0.918064 22.0429
646 1 -1.1104 12.4519 -3.37076 23.8118
648 1 -1.1104 12.6297 -3.19392 26.5466
650 1 -1.1104 12.666 -0.484946 23.4911
651 2 2.2208 11.2232 -1.79414 25.0535
653 1 -1.1104 12.6143 -0.450671 26.3418
654 1 -1.1104 9.80432 -3.30642 23.537
656 2 2.2208 8.1857 0.774751 24.9295
657 1 -1.1104 9.83191 -3.3153 26.361
659 2 2.2208 8.40474 -1.79003 22.2338
661 1 -1.1104 9.72683 -0.45173 23.5261
662 1 -1.1104 9.77396 -0.493038 26.468
647 1 -1.1104 12.6401 2.24831 23.6435
649 1 -1.1104 12.6677 2.32081 26.4249
652 2 2.2208 11.0672 3.85502 24.8245
655 1 -1.1104 9.7826 2.35196 23.3972
658 1 -1.1104 9.70184 2.36928 26.3084
660 2 2.2208 8.01989 3.62916 22.0978
592 1 -1.1104 12.1814 16.3329 20.6656
507 1 -1.1104 4.1078 7.86098 20.7866
703 2 2.2208 -0.301648 12.2002 22.0752
444 2 2.2208 -0.17514 6.51033 22.1143
702 2 2.2208 -0.230497 9.23321 24.9211
498 1 -1.1104 1.19667 10.5384 20.6558
514 1 -1.1104 3.95214 10.7941 20.7753
674 2 2.2208 5.51406 6.55042 22.1126
676 1 -1.1104 1.32101 7.85077 23.4861
678 1 -1.1104 1.33685 7.93423 26.397
680 1 -1.1104 1.19941 5.13855 23.4229
685 1 -1.1104 1.40825 5.05832 26.1683
689 1 -1.1104 4.08606 7.92244 23.517
690 2 2.2208 2.63064 6.40182 24.7545
692 1 -1.1104 3.92577 7.71905 26.1588
694 1 -1.1104 4.15215 4.95936 23.5827
696 1 -1.1104 4.32508 4.84652 26.5063
675 2 2.2208 5.48513 12.1718 22.1035
681 1 -1.1104 1.13857 10.7181 23.4186
684 2 2.2208 5.36138 9.27228 24.9182
686 1 -1.1104 1.09994 10.7457 26.08
691 2 2.2208 2.70236 12.0572 24.9011
693 2 2.2208 2.59281 9.39948 22.0841
695 1 -1.1104 4.04945 10.6211 23.495
697 1 -1.1104 4.08087 10.6136 26.2534
677 1 -1.1104 6.9523 7.8849 23.6145
664 1 -1.1104 9.54749 13.6077 23.4568
635 1 -1.1104 12.4077 19.124 26.4254
529 1 -1.1104 12.581 10.6949 20.5989
683 1 -1.1104 6.83006 10.5581 23.4543
502 1 -1.1104 6.85029 10.7735 20.8397
489 1 -1.1104 6.79025 7.77581 20.5586
522 1 -1.1104 12.407 7.84113 20.698
682 1 -1.1104 6.87576 5.04438 23.4955
539 1 -1.1104 9.59769 4.96667 20.6753
687 1 -1.1104 6.78288 5.07809 26.3498
679 1 -1.1104 6.71256 8.02845 26.2724
688 1 -1.1104 6.6743 10.7917 26.297
706 1 -1.1104 9.65383 5.30896 26.0876
708 1 -1.1104 9.67825 5.28235 23.4292
710 1 -1.1104 9.64783 8.08099 26.178
712 2 2.2208 8.29908 6.60557 24.84
713 2 2.2208 10.9835 6.57634 22.1002
715 1 -1.1104 12.3795 7.94438 23.467
716 1 -1.1104 12.4535 7.84915 26.2167
717 1 -1.1104 12.523 5.13116 23.5278
720 1 -1.1104 12.5206 5.08351 26.536
722 1 -1.1104 9.63279 7.90386 23.5271
541 1 -1.1104 9.58064 10.513 20.7216
705 1 -1.1104 9.69399 10.7253 26.2884
707 1 -1.1104 9.77246 10.8865 23.5577
709 2 2.2208 8.27395 9.17318 22.1447
711 2 2.2208 8.2569 12.0954 24.8926
714 2 2.2208 11.0585 12.1653 22.0712
718 1 -1.1104 12.6704 10.8178 23.3321
719 2 2.2208 11.0783 9.40575 24.7031
721 1 -1.1104 12.4039 10.5418 26.2011
699 2 2.2208 8.21571 14.9015 22.1525
747 1 -1.1104 6.99826 16.3211 23.4813
724 2 2.2208 -0.189473 20.7028 24.9154
577 1 -1.1104 3.98821 16.3135 20.862
553 1 -1.1104 0.876355 19.3049 20.6483
563 1 -1.1104 1.05545 16.4667 20.6562
725 2 2.2208 -0.213848 15.1747 24.9222
723 2 2.2208 -0.36017 17.7305 22.1368
551 1 -1.1104 1.17942 13.6543 20.8189
746 1 -1.1104 3.96456 13.4339 26.4724
731 1 -1.1104 3.98432 13.4666 23.3882
735 1 -1.1104 1.48589 13.6224 26.204
741 1 -1.1104 1.08651 13.4132 23.6228
743 1 -1.1104 3.95843 19.1671 26.3184
748 1 -1.1104 1.26412 16.1865 23.4294
745 1 -1.1104 4.03049 16.3848 26.4115
744 2 2.2208 2.58444 17.6618 24.7813
750 2 2.2208 2.63733 20.5962 22.1782
749 1 -1.1104 4.31102 16.3605 23.5388
727 2 2.2208 2.72199 14.8909 22.1698
729 1 -1.1104 4.12449 19.1814 23.6234
733 1 -1.1104 1.26086 19.3296 26.1993
734 1 -1.1104 1.22059 16.3916 26.337
737 2 2.2208 5.48191 20.6902 25.0424
738 2 2.2208 5.45991 14.9995 25.0282
740 1 -1.1104 1.05492 19.1307 23.4874
742 2 2.2208 5.58087 17.7354 22.1439
670 1 -1.1104 6.75528 19.1694 26.3411
704 1 -1.1104 9.55292 16.3857 26.2587
636 1 -1.1104 12.4259 16.3671 23.5153
698 1 -1.1104 9.7463 19.1629 26.2943
736 1 -1.1104 6.97147 19.4152 23.6528
599 1 -1.1104 9.62369 19.0136 20.6381
633 1 -1.1104 12.6591 19.1144 23.4999
604 1 -1.1104 9.51712 16.259 20.6622
638 2 2.2208 11.0067 14.9926 24.7748
585 1 -1.1104 12.2797 13.4598 20.7181
597 1 -1.1104 9.46042 13.1478 20.7758
565 1 -1.1104 6.69715 16.4368 20.616
667 2 2.2208 8.23891 17.8631 25.0235
663 1 -1.1104 12.3617 16.2115 26.4926
739 1 -1.1104 6.77898 13.6445 23.5164
607 2 2.2208 11.0566 17.7174 22.1334
349 2 2.2208 2.7176 0.810674 13.7162
372 2 2.2208 11.1852 20.4281 13.6745
357 2 2.2208 11.0501 3.70257 13.6423
367 2 2.2208 -0.124615 3.66062 13.725
398 2 2.2208 11.0444 6.64053 27.6579
353 2 2.2208 8.3488 -4.71554 13.7945
400 2 2.2208 11.1206 12.1687 27.6994
383 2 2.2208 2.69519 3.73419 27.6641
365 2 2.2208 8.23553 12.2037 13.6646
358 2 2.2208 -0.227281 9.39343 13.6817
371 2 2.2208 5.3263 15.0031 13.5287
364 2 2.2208 10.9475 9.35773 13.7028
394 2 2.2208 2.65755 9.26443 27.6844
395 2 2.2208 5.33342 12.1452 27.7602
379 2 2.2208 8.29171 20.5779 27.6659
389 2 2.2208 8.30721 3.68035 27.6748
386 2 2.2208 -0.0304341 0.788283 27.709
399 2 2.2208 8.21302 9.52909 27.7209
377 2 2.2208 8.26927 14.917 27.5391
347 2 2.2208 2.80758 -4.9049 13.7833
393 2 2.2208 5.37427 6.53284 27.6438
405 2 2.2208 2.63674 20.6689 27.6767
751 2 2.2208 5.62887 23.3177 5.19636
753 1 -1.1104 1.30365 24.9008 0.982912
754 1 -1.1104 1.10616 24.7384 3.90905
755 1 -1.1104 1.23897 22.0811 1.00998
757 2 2.2208 5.39032 26.1631 2.35775
758 1 -1.1104 1.31261 22.0566 3.88095
760 1 -1.1104 4.04291 24.9218 0.864545
761 2 2.2208 2.63049 23.4301 2.29199
763 1 -1.1104 4.01907 24.8193 3.78935
764 2 2.2208 2.582 26.1212 5.13706
765 1 -1.1104 3.98144 22.0985 0.901684
767 1 -1.1104 4.16167 22.0533 3.7639
768 1 -1.1104 3.96708 27.4941 3.93527
759 1 -1.1104 1.32331 27.5364 3.77309
766 1 -1.1104 3.83 27.8366 1.04621
756 1 -1.1104 0.996243 27.7471 1.1465
752 2 2.2208 5.29259 29.0118 5.37871
762 2 2.2208 2.62281 29.1556 2.5057
770 2 2.2208 -0.246561 23.3973 5.31253
1068 2 2.2208 13.6978 31.855 5.32933
1040 2 2.2208 -0.504563 43.0058 7.95251
895 1 -1.1104 1.16423 27.7566 6.63355
899 1 -1.1104 4.0298 21.9752 6.75897
1110 2 2.2208 8.15544 40.2521 13.5973
769 2 2.2208 -0.180285 29.1418 5.41315
1099 2 2.2208 -0.23255 37.5574 13.638
1133 2 2.2208 8.25701 37.5495 -0.308128
777 1 -1.1104 6.70599 27.4643 3.90277
776 1 -1.1104 6.84771 21.8677 3.7937
773 1 -1.1104 6.85815 24.8532 3.73571
772 1 -1.1104 6.8463 24.6785 1.09345
774 1 -1.1104 6.92975 21.9478 0.8828
775 1 -1.1104 6.67152 27.7107 1.14444
778 2 2.2208 10.9839 23.5201 5.32638
780 1 -1.1104 12.3558 24.7558 1.1656
781 1 -1.1104 12.5093 24.5866 3.93879
782 1 -1.1104 12.4701 21.9791 1.08355
784 2 2.2208 10.9546 26.2467 2.46907
785 1 -1.1104 12.3171 22.0076 3.85214
787 1 -1.1104 9.64897 24.9213 1.25055
788 2 2.2208 8.27831 23.3185 2.42716
790 1 -1.1104 9.67248 25.0539 4.1025
791 2 2.2208 8.23637 26.2937 5.45986
792 1 -1.1104 9.75706 22.0198 1.18064
793 1 -1.1104 9.62785 27.5825 1.10082
794 1 -1.1104 9.58863 22.1127 4.09676
783 1 -1.1104 12.4064 27.5949 0.969191
795 1 -1.1104 9.64367 28.0169 3.77461
786 1 -1.1104 12.3333 27.6699 3.88731
779 2 2.2208 10.9279 28.9938 5.33097
789 2 2.2208 8.08975 28.9887 2.46895
1085 1 -1.1104 12.3119 47.2276 6.47553
1123 2 2.2208 -0.0708827 23.495 -0.418194
800 1 -1.1104 1.23989 30.5251 1.1031
803 1 -1.1104 1.11996 30.2824 3.80233
806 1 -1.1104 1.18039 33.3092 0.856354
807 2 2.2208 5.27545 31.8808 2.50536
809 1 -1.1104 1.09378 33.2835 3.76888
811 1 -1.1104 4.08038 30.4643 0.937347
814 1 -1.1104 3.88872 30.5583 3.73541
816 2 2.2208 2.53182 31.8749 5.27464
818 1 -1.1104 3.95338 33.2737 1.195
819 1 -1.1104 3.72223 33.4806 3.84456
799 2 2.2208 5.23512 34.6827 5.144
801 1 -1.1104 1.36035 36.2142 1.1659
804 1 -1.1104 1.16643 36.1201 3.74062
808 2 2.2208 5.30475 37.4973 2.42514
812 1 -1.1104 4.18055 36.11 0.927118
813 2 2.2208 2.44576 34.5188 2.47699
815 1 -1.1104 3.80318 36.1692 3.75493
817 2 2.2208 2.38568 37.42 5.26815
956 1 -1.1104 3.77013 36.1162 6.48426
953 1 -1.1104 1.05208 33.3448 6.58234
955 1 -1.1104 3.99516 30.4175 6.481
950 1 -1.1104 0.954091 36.0946 6.58364
824 1 -1.1104 6.64293 30.1694 4.03746
823 1 -1.1104 6.84272 30.4974 1.18549
1118 2 2.2208 2.56531 26.3383 -0.326276
1111 2 2.2208 10.8852 42.9709 13.737
1054 2 2.2208 10.7238 42.9381 8.0595
825 1 -1.1104 6.76412 33.1413 0.929353
810 1 -1.1104 6.67733 33.1503 3.62962
805 1 -1.1104 6.79578 36.0273 3.83357
1131 2 2.2208 -0.267755 34.8048 -0.250733
802 1 -1.1104 6.81109 35.9421 1.07436
827 1 -1.1104 12.4371 30.4561 1.19718
829 1 -1.1104 11.9999 30.4755 3.84064
831 1 -1.1104 12.2122 33.2052 0.936736
832 2 2.2208 10.862 31.735 2.32288
834 1 -1.1104 12.2181 33.2952 3.85585
835 1 -1.1104 9.55211 30.4826 0.883524
838 1 -1.1104 9.30901 30.5139 3.80546
840 2 2.2208 8.07251 31.7353 5.22502
842 1 -1.1104 9.54597 33.4055 1.02494
843 1 -1.1104 9.41667 33.3364 4.12344
826 2 2.2208 10.9799 34.6734 5.12895
828 1 -1.1104 12.48 36.0997 0.934488
830 1 -1.1104 12.2899 35.9848 3.80794
833 2 2.2208 10.9935 37.3135 2.41148
836 1 -1.1104 9.82916 36.1051 0.988003
837 2 2.2208 8.09965 34.6405 2.47813
839 1 -1.1104 9.62672 35.9709 3.68201