ITEM: TIMESTEP
30000
ITEM: NUMBER OF ATOMS
17732
ITEM: BOX BOUNDS pp pp pp
-4.0503458142359627e-01 2.7745034581424417e+01
-4.8607598074989751e+00 3.3294075980749602e+02
-4.0901256289417454e-01 2.7749012562893942e+01
ITEM: ATOMS id type q x y z
1 2 2.2208 5.59384 0.873929 5.45865
2 1 -1.1104 1.40539 -3.52445 1.1199
6 1 -1.1104 1.64218 -3.40921 3.99084
10 1 -1.1104 1.16387 -0.678706 1.22243
12 2 2.2208 5.29713 -2.03853 2.68514
14 1 -1.1104 1.25702 -0.548907 4.03187
16 1 -1.1104 4.00155 -3.52872 0.921191
18 2 2.2208 2.7707 0.937127 2.49816
19 1 -1.1104 4.34362 -3.90061 3.71297
21 2 2.2208 2.63172 -1.89549 5.56293
23 1 -1.1104 4.0414 -0.573617 1.18277
24 1 -1.1104 3.84323 -0.918062 3.99799
172 1 -1.1104 4.15455 -3.53993 6.64715
168 1 -1.1104 6.81972 -3.45828 6.87297
112 1 -1.1104 6.81963 19.4439 6.63907
174 1 -1.1104 4.14752 -0.458363 6.59822
27 2 2.2208 -0.0661397 3.59287 2.64003
323 1 -1.1104 12.5546 16.2037 9.51112
3 1 -1.1104 1.29712 2.20086 1.16261
7 1 -1.1104 1.40063 2.34976 3.89117
13 2 2.2208 5.52787 3.77597 2.58235
17 1 -1.1104 3.93258 2.49279 1.22822
20 1 -1.1104 4.11507 2.13618 3.85327
22 2 2.2208 2.81376 3.68897 5.39327
167 1 -1.1104 1.47067 2.18463 6.73543
169 1 -1.1104 7.16545 2.16456 6.80347
386 2 2.2208 -0.169849 0.73458 -0.210141
170 1 -1.1104 1.27654 -0.431591 6.94238
166 1 -1.1104 1.36387 -3.30415 6.90871
318 1 -1.1104 9.66054 19.271 9.52752
26 2 2.2208 0.0668719 0.8591 5.24436
28 2 2.2208 2.7028 -4.83421 2.50088
173 1 -1.1104 4.41948 2.40417 6.77499
296 1 -1.1104 6.81396 19.1848 12.6074
319 1 -1.1104 9.61216 13.5562 9.36604
4 1 -1.1104 6.71695 -3.38985 1.25489
8 1 -1.1104 6.93377 -3.31831 4.08006
11 1 -1.1104 6.85858 -0.528312 1.19791
15 1 -1.1104 6.78488 -0.652485 4.00181
31 2 2.2208 11.1454 0.690002 5.23029
32 1 -1.1104 12.4476 -3.29535 1.05556
34 1 -1.1104 12.2876 -3.27343 4.05272
36 1 -1.1104 12.478 -0.488968 1.12623
37 2 2.2208 10.976 -1.83893 2.48494
39 1 -1.1104 12.4335 -0.637709 3.83411
40 1 -1.1104 9.7111 -3.47019 1.15506
42 2 2.2208 8.15483 0.884649 2.55856
43 1 -1.1104 9.63206 -3.46089 3.89767
45 2 2.2208 8.40437 -1.96984 5.4193
47 1 -1.1104 9.44466 -0.592924 1.1047
48 1 -1.1104 9.73666 -0.715799 3.9413
208 1 -1.1104 9.70274 -3.47904 6.76333
9 1 -1.1104 6.77703 2.29273 4.009
5 1 -1.1104 6.72476 2.31928 1.14657
33 1 -1.1104 12.6455 2.23949 0.986791
35 1 -1.1104 12.6345 2.2703 3.85084
38 2 2.2208 11.1832 3.67675 2.6923
41 1 -1.1104 9.85073 2.1864 1.10574
44 1 -1.1104 9.61161 1.92953 3.88797
46 2 2.2208 8.36691 3.57247 5.29039
311 2 2.2208 -0.0398369 20.5595 8.11274
135 2 2.2208 -0.0919007 14.9602 2.5242
387 2 2.2208 11.1493 0.895819 -0.290311
54 2 2.2208 5.41492 6.56807 5.32889
56 1 -1.1104 1.27177 7.77822 0.980768
58 1 -1.1104 1.13581 7.84649 3.79671
60 1 -1.1104 1.26732 5.13348 1.17916
67 1 -1.1104 1.25831 5.03697 4.02539
71 1 -1.1104 4.12096 7.97703 1.00153
72 2 2.2208 2.61413 6.39434 2.56129
74 1 -1.1104 4.12748 7.84787 3.81116
76 1 -1.1104 4.207 5.24358 1.34733
79 1 -1.1104 4.11767 5.18389 4.15589
239 1 -1.1104 4.0316 5.04359 6.8078
63 1 -1.1104 6.94124 5.01313 1.18658
55 2 2.2208 5.41823 12.0171 5.26784
61 1 -1.1104 1.23783 10.8243 1.16952
66 2 2.2208 5.48693 9.25021 2.42025
68 1 -1.1104 1.23029 10.7606 3.94312
73 2 2.2208 2.71599 12.2809 2.39688
75 2 2.2208 2.73284 9.1761 5.24569
77 1 -1.1104 4.00977 10.8311 1.02146
80 1 -1.1104 3.93266 10.6301 3.9205
379 2 2.2208 8.27983 20.5617 -0.231478
82 2 2.2208 -0.281901 9.14992 2.5369
81 2 2.2208 -0.163985 6.35815 5.37094
83 2 2.2208 -0.106348 12.0212 5.25783
388 2 2.2208 8.16152 -2.14407 -0.162543
378 2 2.2208 11.0818 17.7657 -0.113704
57 1 -1.1104 6.80294 7.92883 0.993396
69 1 -1.1104 6.92252 5.0363 3.98984
59 1 -1.1104 6.82116 7.63126 3.85174
84 2 2.2208 11.1036 6.46071 5.52651
86 1 -1.1104 12.5031 7.86771 1.31728
87 1 -1.1104 12.5205 7.80454 4.10089
88 1 -1.1104 12.7185 4.95181 0.916612
92 1 -1.1104 12.4413 4.91616 3.89528
94 1 -1.1104 9.71792 7.98971 1.15123
95 2 2.2208 8.31211 6.47971 2.55695
97 1 -1.1104 9.62147 7.88409 4.10414
99 1 -1.1104 9.66353 5.03442 1.22079
102 1 -1.1104 9.81624 4.95419 3.92272
267 1 -1.1104 9.97892 7.90819 6.85796
265 1 -1.1104 12.8028 7.88078 6.77017
70 1 -1.1104 6.94821 10.4388 3.93931
64 1 -1.1104 6.83351 10.636 1.23663
85 2 2.2208 11.2985 12.2018 5.31051
89 1 -1.1104 12.5519 10.7125 1.2428
91 2 2.2208 11.103 9.18362 2.72182
93 1 -1.1104 12.62 10.7954 4.12924
96 2 2.2208 8.30416 11.9786 2.56174
98 2 2.2208 8.34078 9.42684 5.41856
100 1 -1.1104 9.72242 10.7408 1.0786
103 1 -1.1104 9.62067 10.4917 3.97387
90 1 -1.1104 12.722 10.611 6.64399
269 1 -1.1104 9.64064 5.2688 6.86551
65 1 -1.1104 6.79102 10.9688 6.80705
330 1 -1.1104 12.4752 13.5771 12.4089
107 1 -1.1104 1.2074 13.5763 1.00634
113 1 -1.1104 1.29616 13.6963 3.88102
123 1 -1.1104 4.07058 13.5787 0.983151
128 1 -1.1104 4.13209 13.4977 3.93538
106 2 2.2208 5.34068 17.7082 5.20406
109 1 -1.1104 1.2828 19.1909 1.0639
114 1 -1.1104 1.4541 19.3315 3.74739
116 1 -1.1104 1.25787 16.4463 1.32262
119 2 2.2208 5.4085 14.9282 2.49239
120 2 2.2208 5.50186 20.6316 2.50629
121 1 -1.1104 1.14215 16.42 4.18901
125 1 -1.1104 4.17808 19.3371 1.12019
127 2 2.2208 2.63303 17.8162 2.525
129 1 -1.1104 4.23395 19.1412 3.93212
130 2 2.2208 2.60319 14.9337 5.49338
131 2 2.2208 2.7543 20.529 5.23702
132 1 -1.1104 3.96308 16.5199 1.1345
134 1 -1.1104 3.90916 16.2332 4.04829
140 1 -1.1104 6.83824 16.2132 1.06671
139 1 -1.1104 6.82667 19.1146 3.84958
203 2 2.2208 5.68838 -4.8603 10.8451
397 2 2.2208 -0.0915502 6.39415 -0.277788
137 2 2.2208 -0.11141 17.7227 5.33893
136 2 2.2208 -0.109105 20.531 2.37845
117 1 -1.1104 1.18635 16.2471 6.83191
394 2 2.2208 2.76979 9.35478 -0.207838
288 1 -1.1104 6.89767 19.2489 9.53917
404 2 2.2208 5.56121 17.8521 -0.32361
400 2 2.2208 11.1736 11.9916 -0.318241
115 1 -1.1104 6.99717 13.4398 3.95146
110 1 -1.1104 6.73483 13.483 0.955199
142 1 -1.1104 12.4411 13.6605 1.13127
146 1 -1.1104 12.5887 13.6207 3.68068
153 1 -1.1104 9.467 13.5337 1.07969
158 1 -1.1104 9.86568 13.4757 3.78239
138 1 -1.1104 6.93237 19.0313 1.19695
122 1 -1.1104 6.81153 16.2373 3.89307
150 2 2.2208 11.085 14.9275 2.49919
141 2 2.2208 11.073 17.8605 5.34402
144 1 -1.1104 12.5705 19.1166 1.11031
147 1 -1.1104 12.4942 19.1492 3.77699
148 1 -1.1104 12.6049 16.3135 1.12216
151 2 2.2208 11.1004 20.468 2.5323
152 1 -1.1104 12.615 16.634 3.87307
155 1 -1.1104 9.71092 19.1958 1.34217
157 2 2.2208 8.33725 17.7549 2.52997
159 1 -1.1104 9.79884 19.2695 4.00305
160 2 2.2208 8.4033 14.969 5.35426
161 2 2.2208 8.20722 20.5354 5.28852
162 1 -1.1104 9.65482 16.3963 1.29087
164 1 -1.1104 9.65452 16.4383 3.9778
163 1 -1.1104 9.82503 16.3635 6.74801
156 1 -1.1104 9.48507 19.2316 6.77332
343 2 2.2208 -0.00759292 9.2891 8.10735
199 2 2.2208 -0.142281 3.42278 8.24235
322 1 -1.1104 9.8489 13.5861 12.4191
328 1 -1.1104 12.662 13.4401 9.60857
175 2 2.2208 5.60375 0.909206 11.0603
176 1 -1.1104 1.29794 -3.44539 12.419
180 1 -1.1104 1.30984 -3.48394 9.58634
184 1 -1.1104 1.33296 -0.643514 12.5578
186 2 2.2208 5.69129 -1.92679 8.22715
188 1 -1.1104 1.38174 -0.745255 9.77906
190 1 -1.1104 4.14545 -3.48265 12.3579
192 2 2.2208 2.7354 0.792025 8.2243
193 1 -1.1104 4.22618 -3.37793 9.53601
195 2 2.2208 2.82231 -2.00529 11.0111
197 1 -1.1104 4.20383 -0.605622 12.4126
198 1 -1.1104 4.07314 -0.512725 9.51321
185 1 -1.1104 7.21338 -0.576382 12.3586
178 1 -1.1104 7.0692 -3.41645 12.2909
177 1 -1.1104 1.37145 2.16349 12.4747
181 1 -1.1104 1.17148 2.05753 9.52649
187 2 2.2208 5.54656 3.67276 8.296
191 1 -1.1104 4.2106 2.27678 12.4488
194 1 -1.1104 4.02549 2.31825 9.73512
196 2 2.2208 2.53542 3.60027 10.8718
52 2 2.2208 11.1589 -4.70827 5.36159
201 2 2.2208 -0.0756443 0.733057 11.1308
183 1 -1.1104 6.99151 2.22188 9.63376
200 2 2.2208 -0.108832 -1.91921 8.15444
205 1 -1.1104 12.5755 -3.45674 6.79528
171 1 -1.1104 6.84713 -0.642288 6.8077
207 1 -1.1104 12.6556 -0.516863 6.60855
210 1 -1.1104 9.92103 -0.589262 6.80425
206 1 -1.1104 12.6098 2.12538 6.61156
209 1 -1.1104 9.739 2.29518 6.98243
182 1 -1.1104 7.18353 -3.3377 9.44096
189 1 -1.1104 6.97918 -0.574932 9.61623
211 2 2.2208 11.2748 0.885899 11.0073
212 1 -1.1104 12.6192 -3.47886 12.3922
214 1 -1.1104 12.6568 -3.44636 9.53814
216 1 -1.1104 12.8273 -0.561741 12.329
217 2 2.2208 11.2093 -1.98631 8.14438
219 1 -1.1104 12.6385 -0.632885 9.33817
220 1 -1.1104 9.91284 -3.4983 12.2942
222 2 2.2208 8.26583 0.92098 8.28765
223 1 -1.1104 9.80177 -3.58859 9.59008
225 2 2.2208 8.53146 -2.03638 10.9778
227 1 -1.1104 9.80562 -0.70629 12.3611
228 1 -1.1104 9.93114 -0.564999 9.66974
179 1 -1.1104 6.97438 2.18356 12.3648
213 1 -1.1104 12.5818 2.31288 12.4567
215 1 -1.1104 12.5759 2.16192 9.58379
221 1 -1.1104 9.68977 2.34559 12.4949
224 1 -1.1104 9.76472 2.36977 9.85779
226 2 2.2208 8.40327 3.80455 11.1232
218 2 2.2208 11.176 3.6542 8.1036
290 1 -1.1104 6.84623 13.6087 9.52916
297 1 -1.1104 7.13698 13.4304 12.4141
202 2 2.2208 2.59576 -4.77153 8.11438
204 2 2.2208 -0.149933 -4.86223 11.0775
342 2 2.2208 -0.165393 12.1415 10.8038
238 1 -1.1104 4.08534 7.87629 6.66884
234 1 -1.1104 1.37489 7.87872 6.73025
62 1 -1.1104 1.49682 10.5669 6.52934
78 1 -1.1104 4.05444 10.6259 6.64218
236 1 -1.1104 1.2265 5.05229 7.00437
240 2 2.2208 5.56473 6.52031 11.0362
242 1 -1.1104 1.39167 7.74855 12.2433
244 1 -1.1104 1.33385 8.12232 9.47908
246 1 -1.1104 1.30276 5.02286 12.3778
251 1 -1.1104 1.14239 5.02315 9.61911
255 1 -1.1104 4.20695 7.89018 12.5348
256 2 2.2208 2.66997 6.51114 8.1939
258 1 -1.1104 4.22418 7.98864 9.67543
260 1 -1.1104 4.10156 5.2247 12.4246
262 1 -1.1104 4.06576 5.24531 9.57499
344 2 2.2208 -0.146165 6.59065 10.8916
241 2 2.2208 5.54408 12.039 10.951
247 1 -1.1104 1.5321 10.4062 12.6859
250 2 2.2208 5.53561 9.21703 8.05502
252 1 -1.1104 1.27206 10.7829 9.40053
257 2 2.2208 2.78706 12.04 8.14566
259 2 2.2208 2.82477 9.2259 11.2045
261 1 -1.1104 4.15747 10.6575 12.4608
263 1 -1.1104 3.98493 10.5744 9.7224
321 1 -1.1104 9.67273 19.2922 12.4427
266 1 -1.1104 12.7094 4.78135 6.67107
101 1 -1.1104 9.6918 10.7089 6.76762
253 1 -1.1104 6.98077 5.09236 9.64994
243 1 -1.1104 7.17748 7.92111 12.4692
248 1 -1.1104 7.04969 4.99893 12.5336
245 1 -1.1104 6.86499 7.6812 9.41071
237 1 -1.1104 6.82413 4.94291 6.79732
235 1 -1.1104 6.97936 8.00617 6.67617
268 1 -1.1104 9.71557 5.14763 9.61343
271 1 -1.1104 9.92941 5.11768 12.3898
273 1 -1.1104 9.72135 8.08917 9.55476
275 2 2.2208 8.26022 6.47866 8.21369
276 2 2.2208 11.18 6.45939 11.068
278 1 -1.1104 12.5238 7.85269 12.4735
279 1 -1.1104 12.6656 7.7189 9.5939
280 1 -1.1104 12.7766 5.19693 12.3355
283 1 -1.1104 12.5582 4.87366 9.49192
285 1 -1.1104 9.71502 7.84137 12.448
254 1 -1.1104 7.06298 10.598 9.7018
249 1 -1.1104 6.96714 10.7584 12.3082
264 1 -1.1104 9.89575 10.8365 9.66649
270 1 -1.1104 9.87738 10.6767 12.2437
272 2 2.2208 8.46125 9.20013 11.0643
274 2 2.2208 8.44076 12.1434 8.14207
277 2 2.2208 11.1965 12.2241 10.9501
281 1 -1.1104 12.6296 10.6 12.4675
282 2 2.2208 11.3279 9.19939 8.17169
284 1 -1.1104 12.6231 10.3954 9.71
393 2 2.2208 5.52073 6.44912 -0.176245
108 1 -1.1104 1.07441 13.5045 6.55809
124 1 -1.1104 4.09014 13.5251 6.7689
302 1 -1.1104 1.21359 19.2825 6.65811
126 1 -1.1104 4.10567 19.1701 6.7406
313 2 2.2208 -0.289016 14.86 8.03405
305 1 -1.1104 4.21542 13.4932 9.5427
299 1 -1.1104 1.55503 13.2642 12.1348
294 1 -1.1104 1.15583 13.3748 9.38991
287 1 -1.1104 4.27453 13.462 12.3458
312 2 2.2208 -0.214514 17.6842 10.8966
118 1 -1.1104 6.99072 16.5751 6.69018
133 1 -1.1104 4.00258 16.4835 6.8776
309 2 2.2208 2.68676 20.4215 11.1056
308 1 -1.1104 4.06803 16.3036 12.4263
307 1 -1.1104 1.3094 16.2849 12.2494
304 1 -1.1104 4.00249 16.3812 9.7617
303 2 2.2208 2.70732 17.8838 8.23346
301 1 -1.1104 4.1693 19.1556 9.48813
300 2 2.2208 5.55323 17.7176 11.0255
298 1 -1.1104 1.30554 19.0614 12.3321
295 2 2.2208 5.43176 15.0131 8.24914
310 2 2.2208 2.69904 14.8773 10.9029
293 2 2.2208 5.50349 20.6211 8.1657
292 1 -1.1104 1.21244 16.2707 9.5601
291 1 -1.1104 1.31632 19.1714 9.68741
286 1 -1.1104 4.09538 19.0684 12.3459
314 1 -1.1104 9.78719 16.3329 9.5429
316 2 2.2208 8.23036 20.7492 10.9181
331 2 2.2208 11.2179 17.7379 10.9399
111 1 -1.1104 6.99171 13.8461 6.85732
306 1 -1.1104 6.95086 16.3365 12.3754
143 1 -1.1104 12.6588 13.5525 6.65366
154 1 -1.1104 9.86465 13.4855 6.61891
289 1 -1.1104 7.04401 16.2525 9.53857
329 1 -1.1104 12.3436 19.1941 12.4708
320 2 2.2208 8.29084 17.8009 8.14703
317 2 2.2208 8.48828 14.9544 10.8774
145 1 -1.1104 12.4192 19.304 6.71729
149 1 -1.1104 12.4754 16.3755 6.64114
327 1 -1.1104 12.4729 19.0586 9.53367
325 2 2.2208 11.2762 14.8857 8.20358
315 1 -1.1104 9.71625 16.5023 12.4182
324 2 2.2208 10.863 20.7563 8.06085
326 1 -1.1104 12.571 16.4723 12.1346
382 2 2.2208 2.592 -2.10347 -0.395783
403 2 2.2208 2.64943 14.9723 -0.324615
389 2 2.2208 8.31693 3.68343 -0.289835
395 2 2.2208 5.46197 12.2178 -0.306282
381 2 2.2208 5.44994 0.819002 -0.283035
398 2 2.2208 11.0986 6.31847 -0.26192
25 2 2.2208 0.168529 -2.03449 2.66393
390 2 2.2208 10.9312 -4.80864 -0.306585
399 2 2.2208 8.26776 9.3006 -0.273985
377 2 2.2208 8.35674 14.8905 -0.300295
383 2 2.2208 2.48169 3.71392 -0.220401
365 2 2.2208 8.47972 12.1488 13.6249
364 2 2.2208 11.2212 9.16213 13.6518
396 2 2.2208 -0.105749 12.1037 -0.366752
401 2 2.2208 -0.0530121 17.7067 -0.322816
406 2 2.2208 5.64336 0.806385 16.4562
407 1 -1.1104 1.44411 -3.37447 17.9451
411 1 -1.1104 1.26313 -3.28548 15.1342
419 1 -1.1104 1.46349 -0.455305 17.9788
421 2 2.2208 5.31354 -1.95618 19.389
423 1 -1.1104 1.33672 -0.500734 15.163
427 1 -1.1104 4.28482 -3.47178 18.2127
429 2 2.2208 2.78821 0.884734 19.4338
430 1 -1.1104 4.20471 -3.38804 15.4029
434 2 2.2208 2.79566 -1.94702 16.6097
436 1 -1.1104 4.33944 -0.789621 17.6861
437 1 -1.1104 4.05564 -0.474848 15.1126
431 1 -1.1104 4.07375 -3.2191 20.9449
438 1 -1.1104 4.07605 -0.427579 20.9439
408 1 -1.1104 1.46466 2.35127 18.2607
413 1 -1.1104 1.36568 2.25493 15.4704
422 2 2.2208 5.66735 3.73171 19.34
428 1 -1.1104 4.3433 2.22137 18.0953
432 1 -1.1104 4.10704 2.28993 15.1702
435 2 2.2208 2.72036 3.73177 16.7178
640 2 2.2208 2.5306 -4.77869 24.9937
544 2 2.2208 -0.0450437 3.64871 19.4347
443 2 2.2208 0.0315682 -1.75329 19.4688
367 2 2.2208 -0.0304525 3.7778 13.8228
442 2 2.2208 -0.0198151 0.757232 16.6413
639 2 2.2208 5.45966 -4.82162 22.2157
515 2 2.2208 -0.066893 9.27293 19.5603
352 2 2.2208 5.61561 3.66533 13.8429
361 2 2.2208 2.78643 12.1014 13.9022
409 1 -1.1104 7.01102 -3.56887 17.798
415 1 -1.1104 6.93082 -3.34151 15.0882
416 1 -1.1104 6.76533 -3.44593 20.8292
420 1 -1.1104 7.0945 -0.75027 17.9836
425 1 -1.1104 6.9631 -0.558806 15.2236
449 2 2.2208 11.2035 1.0866 16.607
450 1 -1.1104 12.6621 -3.47671 17.9289
452 1 -1.1104 12.6578 -3.42901 14.9941
456 1 -1.1104 12.78 -0.57552 18.027
457 2 2.2208 11.076 -1.9806 19.4667
459 1 -1.1104 12.7131 -0.747274 15.2082
461 1 -1.1104 9.83438 -3.59022 18.0869
463 2 2.2208 8.32852 0.707203 19.3958
464 1 -1.1104 9.69831 -3.3112 15.0915
468 2 2.2208 8.38698 -2.04218 16.6599
470 1 -1.1104 9.84717 -0.644582 17.9049
471 1 -1.1104 9.88645 -0.713755 15.1034
465 1 -1.1104 9.78341 -3.48061 20.7875
453 1 -1.1104 12.5841 -3.32056 20.7962
460 1 -1.1104 12.3696 -0.620513 20.7798
417 1 -1.1104 7.03415 2.31689 15.2309
410 1 -1.1104 7.01394 1.95136 17.9815
451 1 -1.1104 12.632 2.2283 18.0164
454 1 -1.1104 12.7158 2.24959 15.1941
458 2 2.2208 11.2619 3.60312 19.5519
462 1 -1.1104 9.82963 2.18094 18.0889
466 1 -1.1104 9.90206 2.17764 15.0222
469 2 2.2208 8.49189 3.56155 16.6328
644 2 2.2208 -0.0226339 3.72377 25.0713
369 2 2.2208 5.46889 20.6115 13.8254
455 1 -1.1104 12.472 2.18039 20.9925
481 2 2.2208 0.00596021 6.4902 16.7658
482 2 2.2208 5.70341 6.49447 16.4947
484 1 -1.1104 1.33079 7.96624 18.0271
486 1 -1.1104 1.35745 7.7435 15.11
490 1 -1.1104 1.30959 5.08187 18.0361
495 1 -1.1104 1.35333 5.02853 15.3043
503 1 -1.1104 4.26019 7.88454 17.8613
504 2 2.2208 2.73469 6.41749 19.4261
506 1 -1.1104 4.25811 7.83597 15.0967
509 1 -1.1104 4.33366 4.9721 17.9352
511 1 -1.1104 4.17727 5.17389 15.0555
492 1 -1.1104 7.32003 5.01321 18.0829
512 1 -1.1104 4.13757 5.04637 20.6784
485 1 -1.1104 6.99538 7.94399 17.8243
483 2 2.2208 5.76408 12.3064 16.5347
491 1 -1.1104 1.23431 10.7644 18.2729
494 2 2.2208 5.60277 9.3523 19.2406
497 1 -1.1104 1.36038 10.6349 15.4648
505 2 2.2208 2.80386 12.2085 19.3104
508 2 2.2208 2.85753 9.19052 16.4507
510 1 -1.1104 4.05988 10.7236 17.8465
513 1 -1.1104 4.39005 10.6971 15.2451
498 1 -1.1104 1.62443 10.8458 20.7532
349 2 2.2208 2.72154 0.934254 13.789
699 2 2.2208 8.35383 14.8992 22.1267
516 2 2.2208 -0.0150593 12.1973 16.5107
439 2 2.2208 0.0612026 -4.76851 16.5242
358 2 2.2208 -0.158307 9.09506 13.7108
499 1 -1.1104 7.13801 5.22137 15.1774
488 1 -1.1104 6.94781 8.07411 15.1432
500 1 -1.1104 6.79866 5.13186 20.917
518 2 2.2208 11.3314 6.3602 16.6788
520 1 -1.1104 12.5832 7.73428 18.0385
521 1 -1.1104 12.6956 7.85401 15.2819
523 1 -1.1104 12.805 4.93785 17.9256
526 1 -1.1104 12.8014 5.07145 15.1037
530 1 -1.1104 9.91006 7.61918 17.9406
531 2 2.2208 8.44601 6.58153 19.5744
533 1 -1.1104 9.77014 7.97672 15.1419
536 1 -1.1104 10.042 5.12902 18.1023
538 1 -1.1104 10.0661 4.97024 15.1994
539 1 -1.1104 9.66201 5.05913 20.894
534 1 -1.1104 9.96466 7.91222 20.7729
493 1 -1.1104 7.08761 10.6491 17.907
501 1 -1.1104 7.13232 10.9333 15.2007
519 2 2.2208 11.2024 12.2015 16.5285
524 1 -1.1104 12.5712 10.7005 17.9104
525 2 2.2208 11.272 9.33879 19.4004
528 1 -1.1104 12.7543 10.6716 15.3385
532 2 2.2208 8.4922 12.1302 19.3436
535 2 2.2208 8.44667 9.26646 16.5394
537 1 -1.1104 9.79769 10.6709 17.9096
540 1 -1.1104 10.0463 10.6307 15.1675
541 1 -1.1104 9.95269 10.7222 20.826
641 2 2.2208 11.1125 20.5697 24.8538
489 1 -1.1104 7.13459 8.10724 20.8408
441 2 2.2208 2.60382 -4.71707 19.3928
363 2 2.2208 8.53302 6.35118 13.793
351 2 2.2208 -0.200548 14.8675 13.7386
448 2 2.2208 -0.0291067 14.9389 19.3887
546 1 -1.1104 1.41227 13.8139 17.9362
550 1 -1.1104 1.27184 13.5393 14.9896
566 1 -1.1104 4.17194 13.4588 17.7857
569 1 -1.1104 4.15463 13.65 15.1537
447 2 2.2208 -0.139328 17.6635 16.6062
573 2 2.2208 2.76721 15.0919 16.386
545 2 2.2208 5.4465 17.7389 16.5908
547 1 -1.1104 1.14894 19.2271 18.0022
552 1 -1.1104 1.17431 19.112 15.2229
558 1 -1.1104 1.17869 16.4428 17.916
560 2 2.2208 5.4956 14.9279 19.3662
561 2 2.2208 5.39543 20.5525 19.3966
562 1 -1.1104 1.25742 16.3576 15.0324
567 1 -1.1104 3.93786 19.1018 18.0644
568 2 2.2208 2.67987 17.8867 19.4634
571 1 -1.1104 3.97619 19.2671 15.2343
574 2 2.2208 2.53737 20.4308 16.51
575 1 -1.1104 3.95508 16.4054 18.0047
576 1 -1.1104 3.99786 16.5059 15.1722
475 2 2.2208 8.34227 -4.81049 19.3234
476 2 2.2208 -0.244756 20.5021 19.3516
736 1 -1.1104 6.96218 19.156 23.4684
599 1 -1.1104 9.65931 19.4342 20.8594
360 2 2.2208 5.69122 9.42284 13.8603
554 1 -1.1104 7.00456 13.5844 15.1211
548 1 -1.1104 6.97924 13.5803 18.1038
635 1 -1.1104 12.5248 19.2019 26.281
582 1 -1.1104 12.463 13.5811 18.021
584 1 -1.1104 12.6103 13.637 15.119
593 1 -1.1104 9.75046 13.4772 17.8796
596 1 -1.1104 9.83723 13.4887 15.1873
564 1 -1.1104 6.80197 16.5676 15.2702
556 1 -1.1104 6.62683 19.2915 15.3286
559 1 -1.1104 6.78606 16.3559 17.9365
549 1 -1.1104 6.74392 19.3237 18.0385
581 2 2.2208 11.0336 17.9083 16.6274
583 1 -1.1104 12.3878 19.359 18.2287
586 1 -1.1104 12.2759 19.1846 15.2888
588 1 -1.1104 12.5706 16.3801 17.9488
589 2 2.2208 11.1156 14.9457 19.3774
590 2 2.2208 11.0361 20.801 19.4759
591 1 -1.1104 12.5662 16.3242 15.0074
594 1 -1.1104 9.6982 19.161 17.9974
595 2 2.2208 8.18478 17.8649 19.2467
598 1 -1.1104 9.46418 19.1073 15.3219
600 2 2.2208 8.3382 14.8678 16.6439
601 2 2.2208 8.23935 20.5949 16.5677
602 1 -1.1104 9.69654 16.5043 18.0279
603 1 -1.1104 9.52724 16.2904 15.2371
555 1 -1.1104 7.01588 13.5525 20.7014
637 2 2.2208 -0.161837 -4.74623 22.1064
424 1 -1.1104 1.30119 -0.421992 20.7942
412 1 -1.1104 1.18951 -3.37395 20.7283
607 2 2.2208 11.0252 17.7609 22.2235
414 1 -1.1104 1.22877 2.24593 20.9837
433 1 -1.1104 4.10994 2.26487 20.8429
642 2 2.2208 -0.0622803 -2.02862 25.0242
355 2 2.2208 8.471 0.638038 13.8505
609 2 2.2208 5.42164 0.962679 22.3166
610 1 -1.1104 1.34242 -3.30998 23.5704
614 1 -1.1104 0.998239 -3.40691 26.5676
618 1 -1.1104 1.43458 -0.693026 23.8448
620 2 2.2208 5.49849 -2.06111 25.0976
622 1 -1.1104 1.26886 -0.616951 26.5342
624 1 -1.1104 3.98268 -3.26916 23.9222
626 2 2.2208 2.67836 0.818052 25.1531
627 1 -1.1104 3.88154 -3.44404 26.56
629 2 2.2208 2.77765 -1.87996 22.3494
631 1 -1.1104 4.19765 -0.292511 23.7811
632 1 -1.1104 3.8411 -0.534902 26.5836
623 1 -1.1104 6.84349 -0.474784 26.4813
616 1 -1.1104 6.75046 -3.24279 26.54
643 2 2.2208 -0.090852 0.866236 22.3961
611 1 -1.1104 1.394 2.06911 23.7979
615 1 -1.1104 1.14688 2.36381 26.4917
621 2 2.2208 5.41154 3.85061 25.1004
625 1 -1.1104 4.19347 2.53661 23.669
628 1 -1.1104 4.15579 2.22002 26.611
630 2 2.2208 2.79491 3.73059 22.2684
617 1 -1.1104 6.8762 2.36162 26.3287
356 2 2.2208 11.244 -2.05004 13.8486
426 1 -1.1104 6.83498 -0.647537 20.8259
357 2 2.2208 11.3067 3.67244 13.8541
670 1 -1.1104 6.77496 19.357 26.4117
700 2 2.2208 8.27195 20.4171 22.1705
418 1 -1.1104 6.87475 2.17863 20.7373
467 1 -1.1104 9.88257 2.13411 20.7055
612 1 -1.1104 6.86482 -3.33106 23.678
619 1 -1.1104 6.82268 -0.669892 23.494
472 1 -1.1104 9.6361 -0.553921 20.8587
645 2 2.2208 11.095 0.804957 22.2119
646 1 -1.1104 12.5429 -3.49365 23.5144
648 1 -1.1104 12.2886 -3.47693 26.2807
650 1 -1.1104 12.6088 -0.601342 23.734
651 2 2.2208 11.0096 -1.99241 25.143
653 1 -1.1104 12.6652 -0.667309 26.4725
654 1 -1.1104 9.64844 -3.42843 23.6748
656 2 2.2208 8.22823 0.885217 25.1265
657 1 -1.1104 9.41898 -3.45824 26.3265
659 2 2.2208 8.29472 -1.89133 22.2231
661 1 -1.1104 9.54004 -0.509353 23.5915
662 1 -1.1104 9.89272 -0.515352 26.5117
702 2 2.2208 -0.118746 9.16443 25.0682
613 1 -1.1104 6.98147 2.24035 23.6664
647 1 -1.1104 12.5251 2.3246 23.7753
649 1 -1.1104 12.4478 2.09336 26.485
652 2 2.2208 11.0621 3.52362 25.2481
655 1 -1.1104 9.76305 2.41946 23.5524
658 1 -1.1104 9.62817 2.27634 26.5794
660 2 2.2208 8.32842 3.68933 22.2506
747 1 -1.1104 7.14944 16.3621 23.3431
359 2 2.2208 2.7268 6.53861 13.8643
487 1 -1.1104 1.50143 7.86794 20.8328
496 1 -1.1104 1.29889 5.14845 20.8262
514 1 -1.1104 4.27001 10.7031 20.8126
353 2 2.2208 8.50387 -4.85018 13.7829
507 1 -1.1104 4.36157 7.86912 20.507
674 2 2.2208 5.45001 6.55987 22.075
676 1 -1.1104 1.25146 7.76365 23.7281
678 1 -1.1104 1.47391 7.89763 26.5254
680 1 -1.1104 1.54563 5.09692 23.7282
685 1 -1.1104 1.19451 5.16029 26.4086
689 1 -1.1104 4.09062 8.08928 23.5378
690 2 2.2208 2.77671 6.65456 25.1105
692 1 -1.1104 4.2524 7.86582 26.3868
694 1 -1.1104 4.13434 5.25039 23.4908
696 1 -1.1104 4.12973 4.96243 26.3549
675 2 2.2208 5.71261 12.0222 22.2629
681 1 -1.1104 1.51163 10.6111 23.6747
684 2 2.2208 5.64955 9.28226 25.0269
686 1 -1.1104 1.19525 10.6909 26.5163
691 2 2.2208 2.61138 12.1512 25.0394
693 2 2.2208 2.83158 9.44605 22.2263
695 1 -1.1104 4.27788 10.8301 23.6509
697 1 -1.1104 3.94848 10.8043 26.5596
703 2 2.2208 -0.171093 12.1274 22.1177
444 2 2.2208 -0.185753 6.49271 22.1832
372 2 2.2208 10.8799 20.7748 13.7197
527 1 -1.1104 12.4353 5.09322 20.6768
522 1 -1.1104 12.635 8.0607 20.8453
679 1 -1.1104 7.01961 7.88614 26.4284
687 1 -1.1104 6.8127 5.13056 26.5775
682 1 -1.1104 6.87583 4.92797 23.6878
677 1 -1.1104 6.86121 7.84962 23.487
706 1 -1.1104 9.65812 4.84435 26.6636
708 1 -1.1104 9.73074 5.12309 23.8279
710 1 -1.1104 9.80044 7.61927 26.4281
712 2 2.2208 8.21016 6.40264 24.9386
713 2 2.2208 11.0852 6.46944 22.2631
715 1 -1.1104 12.4629 8.05421 23.5772
716 1 -1.1104 12.6085 7.60009 26.5233
717 1 -1.1104 12.6109 5.07904 23.5644
720 1 -1.1104 12.3989 4.96844 26.4428
722 1 -1.1104 9.61842 8.00063 23.5933
502 1 -1.1104 7.20121 10.7901 20.8133
688 1 -1.1104 6.82622 10.8267 26.2674
683 1 -1.1104 6.93626 10.557 23.6803
529 1 -1.1104 12.6549 10.7448 20.8939
705 1 -1.1104 9.57696 10.5615 26.2606
707 1 -1.1104 9.80012 10.7083 23.5004
709 2 2.2208 8.45848 9.35285 22.1868
711 2 2.2208 8.33158 12.1747 25.0231
714 2 2.2208 11.2971 12.089 22.1232
718 1 -1.1104 12.5749 10.63 23.6238
719 2 2.2208 11.0255 9.31631 24.8614
721 1 -1.1104 12.4517 10.7027 26.4764
732 1 -1.1104 6.85278 16.4626 26.1761
667 2 2.2208 8.22976 17.7646 25.0505
723 2 2.2208 -0.199246 17.6429 22.254
570 1 -1.1104 4.19146 13.5387 20.6437
551 1 -1.1104 1.49973 13.6635 20.7493
563 1 -1.1104 1.30249 16.5157 20.7796
553 1 -1.1104 1.12125 19.2158 20.8156
577 1 -1.1104 4.0189 16.3558 20.8097
572 1 -1.1104 4.15363 18.9843 20.8464
724 2 2.2208 -0.160616 20.4383 24.9327
725 2 2.2208 -0.159317 14.8741 24.9668
746 1 -1.1104 3.97137 13.5887 26.3635
731 1 -1.1104 4.15123 13.5877 23.6
735 1 -1.1104 1.26787 13.6382 26.3747
741 1 -1.1104 1.10453 13.372 23.37
743 1 -1.1104 4.02098 19.0818 26.2847
748 1 -1.1104 1.26053 16.3157 23.4833
745 1 -1.1104 4.20985 16.1199 26.5084
744 2 2.2208 2.73569 17.7136 25.1169
750 2 2.2208 2.7559 20.3644 22.2246
749 1 -1.1104 4.10885 16.3515 23.781
727 2 2.2208 2.57528 14.8821 22.1915
729 1 -1.1104 4.2547 19.0618 23.5581
733 1 -1.1104 1.26115 19.1385 26.3405
734 1 -1.1104 1.36747 16.372 26.3175
737 2 2.2208 5.48815 20.5785 24.9636
738 2 2.2208 5.4209 14.8568 25.0112
740 1 -1.1104 1.45559 19.0162 23.6581
742 2 2.2208 5.38221 17.495 22.2085
698 1 -1.1104 9.60583 19.118 26.4588
597 1 -1.1104 9.69604 13.5276 20.6488
585 1 -1.1104 12.5295 13.5386 20.7859
557 1 -1.1104 6.78052 18.998 20.8882
565 1 -1.1104 6.98633 16.3591 20.6043
604 1 -1.1104 9.73716 16.4416 20.7966
587 1 -1.1104 12.4241 19.2522 21.0105
592 1 -1.1104 12.4081 16.2379 20.8737
636 1 -1.1104 12.5625 16.4271 23.5721
663 1 -1.1104 12.4214 16.3805 26.3996
704 1 -1.1104 9.57371 16.3439 26.7183
633 1 -1.1104 12.5913 19.0064 23.5155
701 1 -1.1104 9.76471 16.5169 23.8597
730 1 -1.1104 6.88908 13.5972 26.4461
665 1 -1.1104 9.54064 19.2419 23.801
664 1 -1.1104 9.7702 13.622 23.575
673 1 -1.1104 9.64161 13.4491 26.4752
634 1 -1.1104 12.3495 13.5601 26.4143
608 1 -1.1104 12.5485 13.5864 23.6728
739 1 -1.1104 6.93582 13.6488 23.5955
638 2 2.2208 11.0963 15.0503 25.1404
346 2 2.2208 -0.191712 -1.87054 13.7597
348 2 2.2208 5.57338 -2.02614 13.7581
373 2 2.2208 11.1611 15.1007 13.7885
376 2 2.2208 8.25408 17.8018 13.7876
350 2 2.2208 -0.250797 20.5307 13.6891
368 2 2.2208 2.65247 17.7585 13.7117
474 2 2.2208 11.1548 -4.79422 16.6138
405 2 2.2208 2.73142 20.5522 27.73
371 2 2.2208 5.61861 14.918 13.7133
751 2 2.2208 5.39622 23.4133 5.306
753 1 -1.1104 1.22293 24.7169 1.20796
754 1 -1.1104 1.03535 24.7652 4.08143
755 1 -1.1104 1.28978 21.9118 1.05022
757 2 2.2208 5.33117 26.1232 2.55999
758 1 -1.1104 1.24906 22.131 3.74277
760 1 -1.1104 3.87188 24.9034 1.12823
761 2 2.2208 2.53675 23.3179 2.32044
763 1 -1.1104 3.7626 24.6258 3.88443
764 2 2.2208 2.43966 26.1112 5.30256
765 1 -1.1104 4.20786 22.0491 1.00406
767 1 -1.1104 4.00087 21.8853 3.72978
766 1 -1.1104 3.98619 27.5503 1.11106
768 1 -1.1104 3.85661 27.4711 3.89201
756 1 -1.1104 1.2428 27.4274 0.976562
759 1 -1.1104 1.20908 27.5756 3.74843
892 1 -1.1104 1.14883 24.6232 6.77116
752 2 2.2208 5.44838 29.1338 5.2914
762 2 2.2208 2.54249 28.9173 2.40697
890 2 2.2208 13.6723 45.9654 2.21389
771 2 2.2208 -0.196435 26.2595 2.30304
770 2 2.2208 -0.36846 23.3604 5.23843
769 2 2.2208 -0.256876 29.0804 5.204
894 1 -1.1104 1.22951 21.8688 6.81627
871 2 2.2208 -0.316044 40.2774 5.23262
1056 1 -1.1104 12.4282 38.8757 12.1453
774 1 -1.1104 7.07112 21.8848 1.31205
776 1 -1.1104 6.83717 21.9929 4.14425
777 1 -1.1104 6.78329 27.5848 3.87347
775 1 -1.1104 6.82557 27.5758 0.973634
773 1 -1.1104 6.79158 24.9282 3.97032
772 1 -1.1104 6.69467 24.8022 1.21303
778 2 2.2208 10.9396 23.4715 5.23839
780 1 -1.1104 12.2465 24.6666 1.02432
781 1 -1.1104 12.3691 24.8504 3.81278
782 1 -1.1104 12.4545 21.9292 1.01236
784 2 2.2208 10.9612 26.223 2.57086
785 1 -1.1104 12.3834 21.9185 3.85866
787 1 -1.1104 9.54303 24.6634 1.17234
788 2 2.2208 8.29202 23.4606 2.43475
790 1 -1.1104 9.5735 24.9797 3.86138
791 2 2.2208 8.1476 26.2364 5.43294
792 1 -1.1104 9.785 21.8129 1.12147
793 1 -1.1104 9.67615 27.5287 1.10666
794 1 -1.1104 9.53421 22.0858 3.81773
795 1 -1.1104 9.60768 27.792 3.83891
786 1 -1.1104 12.4978 28.0579 3.78279
783 1 -1.1104 12.513 27.5144 1.13834
929 1 -1.1104 9.69344 22.3274 6.62122
1674 1 -1.1104 6.51514 47.0639 6.52514
779 2 2.2208 11.0181 29.2664 5.1263
789 2 2.2208 8.16196 29.0873 2.42962
1065 2 2.2208 11.0317 40.1408 10.6092
982 2 2.2208 -0.156637 37.454 7.9399
897 1 -1.1104 6.80416 27.587 6.57789
1063 1 -1.1104 12.4473 41.587 9.39592
800 1 -1.1104 1.10594 30.4408 1.04708
803 1 -1.1104 1.12651 30.3816 3.90917
806 1 -1.1104 1.41112 33.4354 0.956576
807 2 2.2208 5.18732 31.7758 2.37817
809 1 -1.1104 1.04403 33.4079 3.78552
811 1 -1.1104 3.83357 30.3921 1.08944
814 1 -1.1104 3.90534 30.4478 3.89451
816 2 2.2208 2.42525 31.798 5.22876
818 1 -1.1104 4.08057 33.3712 1.11618
819 1 -1.1104 3.87247 33.2654 3.76855
821 2 2.2208 -0.188014 37.5681 2.43921
799 2 2.2208 5.39579 34.6736 5.23056
801 1 -1.1104 1.2117 36.1627 0.717216
804 1 -1.1104 1.4144 36.3866 3.45733
808 2 2.2208 5.38161 37.4203 2.39318
812 1 -1.1104 4.06208 36.0764 1.08192
813 2 2.2208 2.66518 34.7349 2.28891
815 1 -1.1104 4.214 36.0791 3.85548
817 2 2.2208 2.65775 37.5045 5.20544
1074 2 2.2208 -0.20329 26.2264 7.96205
1044 1 -1.1104 9.61965 38.9326 9.25191
1046 1 -1.1104 9.6864 38.8548 12.1805
953 1 -1.1104 1.1205 33.3215 6.48763
820 2 2.2208 -0.180532 34.7122 5.18503
1894 3 0 12.5012 47.0531 10.6594
810 1 -1.1104 6.84749 33.1589 3.97872
823 1 -1.1104 6.65334 30.3868 1.0073
824 1 -1.1104 6.82384 30.4356 3.76126
825 1 -1.1104 6.91957 33.2483 1.09919
827 1 -1.1104 12.4395 30.4669 0.971138
829 1 -1.1104 12.4088 30.5357 3.73164
831 1 -1.1104 12.434 33.1738 1.00235
832 2 2.2208 10.9093 31.8519 2.26081
834 1 -1.1104 12.5712 33.1962 3.75311
835 1 -1.1104 9.49792 30.2666 1.15003
838 1 -1.1104 9.50687 30.5426 4.0303
840 2 2.2208 8.33334 31.9329 5.22559
842 1 -1.1104 9.60796 33.1729 0.764891
843 1 -1.1104 9.68096 33.2505 3.63953
802 1 -1.1104 6.73074 36.1228 1.01351
805 1 -1.1104 7.0359 35.8186 3.91934
826 2 2.2208 11.0395 34.6626 5.29071
828 1 -1.1104 12.3037 35.9948 0.692965
830 1 -1.1104 12.4581 35.911 3.68157