LAMMPS (29 Oct 2020)
OMP_NUM_THREADS environment is not set. Defaulting to 1 thread. (../comm.cpp:94)
  using 1 OpenMP thread(s) per MPI task
OMP_NUM_THREADS environment is not set. Defaulting to 1 thread. (../comm.cpp:94)
  using 1 OpenMP thread(s) per MPI task
Reading data file ...
  orthogonal box = (-0.44468309 -5.5593592 -0.44167347) to (27.784683 333.63936 27.781673)
  2 by 13 by 2 MPI processor grid
  reading atoms ...
  17760 atoms
  reading velocities ...
  17760 velocities
Finding 1-2 1-3 1-4 neighbors ...
  special bond factors lj:    0.0      0.0      0.0     
  special bond factors coul:  0.0      0.0      0.0     
     0 = max # of 1-2 neighbors
     0 = max # of 1-3 neighbors
     0 = max # of 1-4 neighbors
     1 = max # of special neighbors
  special bonds CPU = 0.004 seconds
  read_data CPU = 0.068 seconds
WARNING: 10 of 1000 force values in table Kr-Kr are inconsistent with -dE/dr.
  Should only be flagged at inflection points (../pair_table.cpp:461)
WARNING: 1 of 1000 force values in table Kr-O are inconsistent with -dE/dr.
  Should only be flagged at inflection points (../pair_table.cpp:461)
WARNING: 1 of 1000 force values in table Kr-Th are inconsistent with -dE/dr.
  Should only be flagged at inflection points (../pair_table.cpp:461)
Setting atom values ...
  11760 settings made for charge
Setting atom values ...
  5880 settings made for charge
Setting atom values ...
  120 settings made for charge
PPPM initialization ...
  using 12-bit tables for long-range coulomb (../kspace.cpp:328)
  G vector (1/distance) = 0.29843861
  grid = 40 240 40
  stencil order = 5
  estimated absolute RMS force accuracy = 0.00015874295
  estimated relative force accuracy = 1.1024088e-05
  using single precision MKL FFT
  3d grid and FFT values/proc = 18225 7600
Neighbor list info ...
  update every 1 steps, delay 0 steps, check yes
  max neighbors/atom: 2000, page size: 100000
  master list distance cutoff = 13
  ghost atom cutoff = 13
  binsize = 6.5, bins = 5 53 5
  3 neighbor lists, perpetual/occasional/extra = 3 0 0
  (1) pair coul/long, perpetual
      attributes: half, newton on
      pair build: half/bin/newton
      stencil: half/bin/3d/newton
      bin: standard
  (2) pair eam/alloy, perpetual, skip from (1)
      attributes: half, newton on
      pair build: skip
      stencil: none
      bin: none
  (3) pair table, perpetual, skip from (1)
      attributes: half, newton on
      pair build: skip
      stencil: none
      bin: none
Setting up Verlet run ...
  Unit style    : metal
  Current step  : 0
  Time step     : 0.001
Per MPI rank memory allocation (min/avg/max) = 9.246 | 9.885 | 10.04 Mbytes
Step Temp E_pair E_mol TotEng Press 
       0         1200   -228881.28            0   -226126.65    717.91721 
   50000     1210.993   -228890.54            0   -226110.67    1531.3367 
Loop time of 352.903 on 52 procs for 50000 steps with 17760 atoms

Performance: 12.241 ns/day, 1.961 hours/ns, 141.682 timesteps/s
99.8% CPU use with 52 MPI tasks x 1 OpenMP threads

MPI task timing breakdown:
Section |  min time  |  avg time  |  max time  |%varavg| %total
---------------------------------------------------------------
Pair    | 256.41     | 262.77     | 272.39     |  22.0 | 74.46
Bond    | 0.0042385  | 0.0067673  | 0.009342   |   1.5 |  0.00
Kspace  | 67.131     | 76.377     | 82.368     |  39.4 | 21.64
Neigh   | 3.3444     | 3.572      | 3.8149     |   5.6 |  1.01
Comm    | 7.1401     | 7.6614     | 8.672      |  15.6 |  2.17
Output  | 5.6434e-05 | 6.1316e-05 | 0.00027173 |   0.0 |  0.00
Modify  | 1.0082     | 1.8264     | 2.7941     |  45.9 |  0.52
Other   |            | 0.6927     |            |       |  0.20

Nlocal:        341.538 ave         367 max         324 min
Histogram: 4 7 9 9 5 8 2 4 2 2
Nghost:        5493.83 ave        5685 max        5320 min
Histogram: 5 6 11 2 4 6 6 0 2 10
Neighs:       105204.0 ave      114714 max       92880 min
Histogram: 1 4 3 2 6 13 8 7 6 2

Total # of neighbors = 5470624
Ave neighs/atom = 308.03063
Ave special neighs/atom = 0.0000000
Neighbor list builds = 1188
Dangerous builds = 0
11760 atoms in group oxygen
PPPM initialization ...
  using 12-bit tables for long-range coulomb (../kspace.cpp:328)
  G vector (1/distance) = 0.29843861
  grid = 40 240 40
  stencil order = 5
  estimated absolute RMS force accuracy = 0.00015874295
  estimated relative force accuracy = 1.1024088e-05
  using single precision MKL FFT
  3d grid and FFT values/proc = 18225 7600
Neighbor list info ...
  update every 1 steps, delay 0 steps, check yes
  max neighbors/atom: 2000, page size: 100000
  master list distance cutoff = 13
  ghost atom cutoff = 13
  binsize = 6.5, bins = 5 53 5
  3 neighbor lists, perpetual/occasional/extra = 3 0 0
  (1) pair coul/long, perpetual
      attributes: half, newton on
      pair build: half/bin/newton
      stencil: half/bin/3d/newton
      bin: standard
  (2) pair eam/alloy, perpetual, skip from (1)
      attributes: half, newton on
      pair build: skip
      stencil: none
      bin: none
  (3) pair table, perpetual, skip from (1)
      attributes: half, newton on
      pair build: skip
      stencil: none
      bin: none
Setting up Verlet run ...
  Unit style    : metal
  Current step  : 0
  Time step     : 0.001
Per MPI rank memory allocation (min/avg/max) = 9.497 | 10.14 | 10.29 Mbytes
Step f_2 Temp v_Tdiff v_deltaT 
       0            0     1210.993            0            0 
  100000    1312.9127    1215.3149  0.048931324    568.08813 
  200000    2553.6372     1213.124  0.060330146    700.42739 
  300000    3781.6732    1201.7264  0.060512454    702.54397 
  400000    5017.9657    1218.1025  0.059525842    691.08949 
  500000     6250.489    1206.8773  0.059525071    691.08054 
  600000    7489.8819    1218.1931  0.060391922     701.1446 
  700000    8732.7153    1216.7642    0.0596821    692.90363 
  800000    9962.6984    1210.7874  0.060375227    700.95078 
  900000    11201.711    1214.7078  0.059692889    693.02889 
 1000000    12439.693    1216.2281  0.059773075    693.95985 
Loop time of 7053.1 on 52 procs for 1000000 steps with 17760 atoms

Performance: 12.250 ns/day, 1.959 hours/ns, 141.782 timesteps/s
99.9% CPU use with 52 MPI tasks x 1 OpenMP threads

MPI task timing breakdown:
Section |  min time  |  avg time  |  max time  |%varavg| %total
---------------------------------------------------------------
Pair    | 5118.9     | 5273       | 5426.2     |  97.1 | 74.76
Bond    | 0.086998   | 0.13405    | 0.19329    |   6.5 |  0.00
Kspace  | 1358.7     | 1501.7     | 1646.1     | 169.6 | 21.29
Neigh   | 76.948     | 83.608     | 88.841     |  37.8 |  1.19
Comm    | 140.69     | 153.72     | 181.16     |  81.1 |  2.18
Output  | 0.0010359  | 0.0011019  | 0.0023193  |   0.5 |  0.00
Modify  | 5.6637     | 6.1609     | 6.8536     |  11.1 |  0.09
Other   |            | 34.76      |            |       |  0.49

Nlocal:        341.538 ave         365 max         306 min
Histogram: 1 0 3 5 7 11 10 2 8 5
Nghost:        5480.37 ave        5681 max        5296 min
Histogram: 5 7 10 2 8 3 2 3 2 10
Neighs:       105225.0 ave      113848 max       87775 min
Histogram: 1 0 3 3 4 6 7 8 14 6

Total # of neighbors = 5471721
Ave neighs/atom = 308.09240
Ave special neighs/atom = 0.0000000
Neighbor list builds = 27845
Dangerous builds = 0
Total wall time: 2:03:26
