LAMMPS (29 Oct 2020)
OMP_NUM_THREADS environment is not set. Defaulting to 1 thread. (../comm.cpp:94)
  using 1 OpenMP thread(s) per MPI task
OMP_NUM_THREADS environment is not set. Defaulting to 1 thread. (../comm.cpp:94)
  using 1 OpenMP thread(s) per MPI task
Reading data file ...
  orthogonal box = (-0.27717828 -3.4472206 -0.27717828) to (27.617178 331.52722 27.617178)
  2 by 13 by 2 MPI processor grid
  reading atoms ...
  18000 atoms
  reading velocities ...
  18000 velocities
Finding 1-2 1-3 1-4 neighbors ...
  special bond factors lj:    0.0      0.0      0.0     
  special bond factors coul:  0.0      0.0      0.0     
     0 = max # of 1-2 neighbors
     0 = max # of 1-3 neighbors
     0 = max # of 1-4 neighbors
     1 = max # of special neighbors
  special bonds CPU = 0.004 seconds
  read_data CPU = 0.057 seconds
131 atoms in group sphere
8 atoms in group oxygen
3 atoms in group thorium
120 atoms in group cluster
6000 atoms in group Th
12000 atoms in group O
40 atoms in group Th_group
80 atoms in group O_group
Setting atom values ...
  20 settings made for type/subset
20 atoms in group Xe
100 atoms in group delete
WARNING: Ignoring 'compress yes' for molecular system (../delete_atoms.cpp:125)
Deleted 100 atoms, new total = 17900
131 atoms in group sphere
8 atoms in group oxygen
3 atoms in group thorium
120 atoms in group cluster
5960 atoms in group Th
11920 atoms in group O
40 atoms in group Th_group
80 atoms in group O_group
Setting atom values ...
  20 settings made for type/subset
40 atoms in group Xe
100 atoms in group delete
WARNING: Ignoring 'compress yes' for molecular system (../delete_atoms.cpp:125)
Deleted 100 atoms, new total = 17800
131 atoms in group sphere
8 atoms in group oxygen
3 atoms in group thorium
120 atoms in group cluster
5920 atoms in group Th
11840 atoms in group O
40 atoms in group Th_group
80 atoms in group O_group
Setting atom values ...
  20 settings made for type/subset
60 atoms in group Xe
100 atoms in group delete
WARNING: Ignoring 'compress yes' for molecular system (../delete_atoms.cpp:125)
Deleted 100 atoms, new total = 17700
Setting atom values ...
  11760 settings made for charge
Setting atom values ...
  5880 settings made for charge
Setting atom values ...
  60 settings made for charge
WARNING: 13 of 1000 force values in table Xe-Xe are inconsistent with -dE/dr.
  Should only be flagged at inflection points (../pair_table.cpp:461)
WARNING: 2 of 1000 force values in table Xe-O are inconsistent with -dE/dr.
  Should only be flagged at inflection points (../pair_table.cpp:461)
WARNING: 2 of 1000 force values in table Xe-Th are inconsistent with -dE/dr.
  Should only be flagged at inflection points (../pair_table.cpp:461)
PPPM initialization ...
  using 12-bit tables for long-range coulomb (../kspace.cpp:328)
  G vector (1/distance) = 0.29911702
  grid = 40 240 40
  stencil order = 5
  estimated absolute RMS force accuracy = 0.00015352568
  estimated relative force accuracy = 1.0661769e-05
  using single precision MKL FFT
  3d grid and FFT values/proc = 18225 7600
Neighbor list info ...
  update every 1 steps, delay 0 steps, check yes
  max neighbors/atom: 2000, page size: 100000
  master list distance cutoff = 13
  ghost atom cutoff = 13
  binsize = 6.5, bins = 5 52 5
  3 neighbor lists, perpetual/occasional/extra = 3 0 0
  (1) pair coul/long, perpetual
      attributes: half, newton on
      pair build: half/bin/newton
      stencil: half/bin/3d/newton
      bin: standard
  (2) pair eam/alloy, perpetual, skip from (1)
      attributes: half, newton on
      pair build: skip
      stencil: none
      bin: none
  (3) pair table, perpetual, skip from (1)
      attributes: half, newton on
      pair build: skip
      stencil: none
      bin: none
Setting up cg style minimization ...
  Unit style    : metal
  Current step  : 0
WARNING: Energy due to 3 extra global DOFs will be included in minimizer energies
Per MPI rank memory allocation (min/avg/max) = 10.35 | 10.99 | 11.16 Mbytes
Step Temp E_pair E_mol TotEng Press Volume 
       0            0   -231518.54            0   -231518.54    658.00677    260641.98 
     105            0   -231790.05            0   -231790.05    66.999723    260951.94 
Loop time of 2.16936 on 52 procs for 105 steps with 17700 atoms

99.2% CPU use with 52 MPI tasks x 1 OpenMP threads

Minimization stats:
  Stopping criterion = linesearch alpha is zero
  Energy initial, next-to-last, final = 
     -231518.544164345  -231790.049569468  -231790.049569468
  Force two-norm initial, final = 348.23429 42.879180
  Force max component initial, final = 225.69312 31.253447
  Final line search alpha, max atom move = 5.0445643e-12 1.5766002e-10
  Iterations, force evaluations = 105 195

MPI task timing breakdown:
Section |  min time  |  avg time  |  max time  |%varavg| %total
---------------------------------------------------------------
Pair    | 1.235      | 1.3057     | 1.4164     |   3.7 | 60.19
Bond    | 1.3957e-05 | 2.5976e-05 | 4.5104e-05 |   0.0 |  0.00
Kspace  | 0.31608    | 0.42684    | 0.49738    |   6.5 | 19.68
Neigh   | 0          | 0          | 0          |   0.0 |  0.00
Comm    | 0.030064   | 0.032494   | 0.0339     |   0.5 |  1.50
Output  | 0          | 0          | 0          |   0.0 |  0.00
Modify  | 0          | 0          | 0          |   0.0 |  0.00
Other   |            | 0.4043     |            |       | 18.64

Nlocal:        340.385 ave         404 max         295 min
Histogram: 7 6 4 9 4 9 6 4 1 2
Nghost:        5563.42 ave        5833 max        5319 min
Histogram: 12 4 1 4 3 4 6 10 6 2
Neighs:       108233.0 ave      130396 max       86866 min
Histogram: 3 3 8 4 9 6 9 4 4 2

Total # of neighbors = 5628119
Ave neighs/atom = 317.97282
Ave special neighs/atom = 0.0000000
Neighbor list builds = 0
Dangerous builds = 0
Resetting atom IDs ...
PPPM initialization ...
  using 12-bit tables for long-range coulomb (../kspace.cpp:328)
  G vector (1/distance) = 0.29910083
  grid = 40 240 40
  stencil order = 5
  estimated absolute RMS force accuracy = 0.00015362778
  estimated relative force accuracy = 1.0668859e-05
  using single precision MKL FFT
  3d grid and FFT values/proc = 18225 7600
Neighbor list info ...
  update every 1 steps, delay 0 steps, check yes
  max neighbors/atom: 2000, page size: 100000
  master list distance cutoff = 13
  ghost atom cutoff = 13
  binsize = 6.5, bins = 5 52 5
  3 neighbor lists, perpetual/occasional/extra = 3 0 0
  (1) pair coul/long, perpetual
      attributes: half, newton on
      pair build: half/bin/newton
      stencil: half/bin/3d/newton
      bin: standard
  (2) pair eam/alloy, perpetual, skip from (1)
      attributes: half, newton on
      pair build: skip
      stencil: none
      bin: none
  (3) pair table, perpetual, skip from (1)
      attributes: half, newton on
      pair build: skip
      stencil: none
      bin: none
Finding 1-2 1-3 1-4 neighbors ...
  special bond factors lj:    0.0      0.0      0.0     
  special bond factors coul:  0.0      0.0      0.0     
     0 = max # of 1-2 neighbors
     0 = max # of 1-3 neighbors
     0 = max # of 1-4 neighbors
     1 = max # of special neighbors
  special bonds CPU = 0.001 seconds
PPPM initialization ...
  using 12-bit tables for long-range coulomb (../kspace.cpp:328)
  G vector (1/distance) = 0.29910083
  grid = 40 240 40
  stencil order = 5
  estimated absolute RMS force accuracy = 0.00015362778
  estimated relative force accuracy = 1.0668859e-05
  using single precision MKL FFT
  3d grid and FFT values/proc = 18225 7600
Neighbor list info ...
  update every 1 steps, delay 0 steps, check yes
  max neighbors/atom: 2000, page size: 100000
  master list distance cutoff = 13
  ghost atom cutoff = 13
  binsize = 6.5, bins = 5 52 5
  3 neighbor lists, perpetual/occasional/extra = 3 0 0
  (1) pair coul/long, perpetual
      attributes: half, newton on
      pair build: half/bin/newton
      stencil: half/bin/3d/newton
      bin: standard
  (2) pair eam/alloy, perpetual, skip from (1)
      attributes: half, newton on
      pair build: skip
      stencil: none
      bin: none
  (3) pair table, perpetual, skip from (1)
      attributes: half, newton on
      pair build: skip
      stencil: none
      bin: none
Setting up Verlet run ...
  Unit style    : metal
  Current step  : 105
  Time step     : 0.001
Per MPI rank memory allocation (min/avg/max) = 9.221 | 9.871 | 10.04 Mbytes
Step Dt Time Atoms Temp PotEng KinEng Press Volume 
     105        0.001            0    17700         1200   -231790.05    2745.3304    11304.035    260951.94 
   20000        0.001       19.895    17700    1202.5297   -229010.56    2751.1178    -261.8218    269872.54 
   40000        0.001       39.895    17700    1200.2075   -228972.85    2745.8051   -544.16633    269975.93 
   60000        0.001       59.895    17700    1194.0648   -229008.43    2731.7519   -797.18543    269916.45 
   80000        0.001       79.895    17700     1207.285   -229001.36    2761.9968    1178.9579    269640.71 
  100000        0.001       99.895    17700    1206.2338   -228979.97    2759.5918   -186.62674    269980.47 
  100105        0.001          100    17700    1211.8949   -228988.51    2772.5433     1807.223     269618.6 
Loop time of 824.255 on 52 procs for 100000 steps with 17700 atoms

Performance: 10.482 ns/day, 2.290 hours/ns, 121.322 timesteps/s
99.8% CPU use with 52 MPI tasks x 1 OpenMP threads

MPI task timing breakdown:
Section |  min time  |  avg time  |  max time  |%varavg| %total
---------------------------------------------------------------
Pair    | 511.28     | 525.77     | 545.64     |  38.2 | 63.79
Bond    | 0.0098556  | 0.014512   | 0.019948   |   1.9 |  0.00
Kspace  | 149.44     | 170.12     | 185.51     |  69.7 | 20.64
Neigh   | 7.4332     | 8.1105     | 8.6628     |  10.4 |  0.98
Comm    | 16.132     | 16.495     | 16.988     |   5.2 |  2.00
Output  | 0.024782   | 0.024805   | 0.025864   |   0.1 |  0.00
Modify  | 92.073     | 95.99      | 100.02     |  23.8 | 11.65
Other   |            | 7.727      |            |       |  0.94

Nlocal:        340.385 ave         364 max         320 min
Histogram: 1 5 7 9 10 9 4 2 1 4
Nghost:        5476.88 ave        5668 max        5282 min
Histogram: 14 6 0 0 4 4 4 3 4 13
Neighs:       104939.0 ave      114373 max       90360 min
Histogram: 1 2 2 1 5 8 21 4 4 4

Total # of neighbors = 5456839
Ave neighs/atom = 308.29599
Ave special neighs/atom = 0.0000000
Neighbor list builds = 2660
Dangerous builds = 0
WARNING: Shell command 'mkdir' failed with error 'File exists' (../input.cpp:1197)
System init for write_data ...
PPPM initialization ...
  using 12-bit tables for long-range coulomb (../kspace.cpp:328)
  G vector (1/distance) = 0.29850972
  grid = 40 240 40
  stencil order = 5
  estimated absolute RMS force accuracy = 0.00015833395
  estimated relative force accuracy = 1.0995684e-05
  using single precision MKL FFT
  3d grid and FFT values/proc = 18225 7600
Neighbor list info ...
  update every 1 steps, delay 0 steps, check yes
  max neighbors/atom: 2000, page size: 100000
  master list distance cutoff = 13
  ghost atom cutoff = 13
  binsize = 6.5, bins = 5 53 5
  3 neighbor lists, perpetual/occasional/extra = 3 0 0
  (1) pair coul/long, perpetual
      attributes: half, newton on
      pair build: half/bin/newton
      stencil: half/bin/3d/newton
      bin: standard
  (2) pair eam/alloy, perpetual, skip from (1)
      attributes: half, newton on
      pair build: skip
      stencil: none
      bin: none
  (3) pair table, perpetual, skip from (1)
      attributes: half, newton on
      pair build: skip
      stencil: none
      bin: none
Total wall time: 0:13:46
