LAMMPS (29 Oct 2020)
OMP_NUM_THREADS environment is not set. Defaulting to 1 thread. (../comm.cpp:94)
  using 1 OpenMP thread(s) per MPI task
OMP_NUM_THREADS environment is not set. Defaulting to 1 thread. (../comm.cpp:94)
  using 1 OpenMP thread(s) per MPI task
Reading data file ...
  orthogonal box = (-0.27717828 -3.4472206 -0.27717828) to (27.617178 331.52722 27.617178)
  2 by 13 by 2 MPI processor grid
  reading atoms ...
  18000 atoms
  reading velocities ...
  18000 velocities
Finding 1-2 1-3 1-4 neighbors ...
  special bond factors lj:    0.0      0.0      0.0     
  special bond factors coul:  0.0      0.0      0.0     
     0 = max # of 1-2 neighbors
     0 = max # of 1-3 neighbors
     0 = max # of 1-4 neighbors
     1 = max # of special neighbors
  special bonds CPU = 0.004 seconds
  read_data CPU = 0.079 seconds
191 atoms in group sphere
16 atoms in group oxygen
5 atoms in group thorium
175 atoms in group 1
180 atoms in group cluster
6000 atoms in group Th
12000 atoms in group O
60 atoms in group Th_group
120 atoms in group O_group
Setting atom values ...
  30 settings made for type/subset
30 atoms in group Xe
150 atoms in group delete
WARNING: Ignoring 'compress yes' for molecular system (../delete_atoms.cpp:125)
Deleted 150 atoms, new total = 17850
191 atoms in group sphere
16 atoms in group oxygen
5 atoms in group thorium
175 atoms in group 1
180 atoms in group cluster
5940 atoms in group Th
11880 atoms in group O
60 atoms in group Th_group
120 atoms in group O_group
Setting atom values ...
  30 settings made for type/subset
60 atoms in group Xe
150 atoms in group delete
WARNING: Ignoring 'compress yes' for molecular system (../delete_atoms.cpp:125)
Deleted 150 atoms, new total = 17700
Setting atom values ...
  11760 settings made for charge
Setting atom values ...
  5880 settings made for charge
Setting atom values ...
  60 settings made for charge
WARNING: 13 of 1000 force values in table Xe-Xe are inconsistent with -dE/dr.
  Should only be flagged at inflection points (../pair_table.cpp:461)
WARNING: 2 of 1000 force values in table Xe-O are inconsistent with -dE/dr.
  Should only be flagged at inflection points (../pair_table.cpp:461)
WARNING: 2 of 1000 force values in table Xe-Th are inconsistent with -dE/dr.
  Should only be flagged at inflection points (../pair_table.cpp:461)
PPPM initialization ...
  using 12-bit tables for long-range coulomb (../kspace.cpp:328)
  G vector (1/distance) = 0.29911702
  grid = 40 240 40
  stencil order = 5
  estimated absolute RMS force accuracy = 0.00015352568
  estimated relative force accuracy = 1.0661769e-05
  using single precision MKL FFT
  3d grid and FFT values/proc = 18225 7600
Neighbor list info ...
  update every 1 steps, delay 0 steps, check yes
  max neighbors/atom: 2000, page size: 100000
  master list distance cutoff = 13
  ghost atom cutoff = 13
  binsize = 6.5, bins = 5 52 5
  3 neighbor lists, perpetual/occasional/extra = 3 0 0
  (1) pair coul/long, perpetual
      attributes: half, newton on
      pair build: half/bin/newton
      stencil: half/bin/3d/newton
      bin: standard
  (2) pair eam/alloy, perpetual, skip from (1)
      attributes: half, newton on
      pair build: skip
      stencil: none
      bin: none
  (3) pair table, perpetual, skip from (1)
      attributes: half, newton on
      pair build: skip
      stencil: none
      bin: none
Setting up cg style minimization ...
  Unit style    : metal
  Current step  : 0
WARNING: Energy due to 3 extra global DOFs will be included in minimizer energies
Per MPI rank memory allocation (min/avg/max) = 10.35 | 11.00 | 11.16 Mbytes
Step Temp E_pair E_mol TotEng Press Volume 
       0            0   -231331.08            0   -231331.08    1456.5215    260641.98 
     112            0   -231713.65            0   -231713.65    332.90338    261074.01 
Loop time of 2.42787 on 52 procs for 112 steps with 17700 atoms

99.2% CPU use with 52 MPI tasks x 1 OpenMP threads

Minimization stats:
  Stopping criterion = linesearch alpha is zero
  Energy initial, next-to-last, final = 
     -231331.084252676  -231713.652716659  -231713.652716659
  Force two-norm initial, final = 525.72348 108.58300
  Force max component initial, final = 468.65215 79.225006
  Final line search alpha, max atom move = 8.9449458e-13 7.0866338e-11
  Iterations, force evaluations = 112 211

MPI task timing breakdown:
Section |  min time  |  avg time  |  max time  |%varavg| %total
---------------------------------------------------------------
Pair    | 1.3368     | 1.4307     | 1.5432     |   3.6 | 58.93
Bond    | 1.8075e-05 | 2.7171e-05 | 3.7239e-05 |   0.0 |  0.00
Kspace  | 0.40105    | 0.5135     | 0.60749    |   6.0 | 21.15
Neigh   | 0          | 0          | 0          |   0.0 |  0.00
Comm    | 0.042707   | 0.045163   | 0.047051   |   0.5 |  1.86
Output  | 0          | 0          | 0          |   0.0 |  0.00
Modify  | 0          | 0          | 0          |   0.0 |  0.00
Other   |            | 0.4385     |            |       | 18.06

Nlocal:        340.385 ave         404 max         275 min
Histogram: 2 2 8 8 6 5 8 5 6 2
Nghost:        5556.77 ave        5737 max        5362 min
Histogram: 5 4 1 5 7 12 6 2 5 5
Neighs:       108340.0 ave      130396 max       77252 min
Histogram: 2 2 0 5 6 13 5 10 7 2

Total # of neighbors = 5633685
Ave neighs/atom = 318.28729
Ave special neighs/atom = 0.0000000
Neighbor list builds = 0
Dangerous builds = 0
Resetting atom IDs ...
PPPM initialization ...
  using 12-bit tables for long-range coulomb (../kspace.cpp:328)
  G vector (1/distance) = 0.2990896
  grid = 40 240 40
  stencil order = 5
  estimated absolute RMS force accuracy = 0.00015373045
  estimated relative force accuracy = 1.0675989e-05
  using single precision MKL FFT
  3d grid and FFT values/proc = 18225 7600
Neighbor list info ...
  update every 1 steps, delay 0 steps, check yes
  max neighbors/atom: 2000, page size: 100000
  master list distance cutoff = 13
  ghost atom cutoff = 13
  binsize = 6.5, bins = 5 52 5
  3 neighbor lists, perpetual/occasional/extra = 3 0 0
  (1) pair coul/long, perpetual
      attributes: half, newton on
      pair build: half/bin/newton
      stencil: half/bin/3d/newton
      bin: standard
  (2) pair eam/alloy, perpetual, skip from (1)
      attributes: half, newton on
      pair build: skip
      stencil: none
      bin: none
  (3) pair table, perpetual, skip from (1)
      attributes: half, newton on
      pair build: skip
      stencil: none
      bin: none
Finding 1-2 1-3 1-4 neighbors ...
  special bond factors lj:    0.0      0.0      0.0     
  special bond factors coul:  0.0      0.0      0.0     
     0 = max # of 1-2 neighbors
     0 = max # of 1-3 neighbors
     0 = max # of 1-4 neighbors
     1 = max # of special neighbors
  special bonds CPU = 0.001 seconds
PPPM initialization ...
  using 12-bit tables for long-range coulomb (../kspace.cpp:328)
  G vector (1/distance) = 0.2990896
  grid = 40 240 40
  stencil order = 5
  estimated absolute RMS force accuracy = 0.00015373045
  estimated relative force accuracy = 1.0675989e-05
  using single precision MKL FFT
  3d grid and FFT values/proc = 18225 7600
Neighbor list info ...
  update every 1 steps, delay 0 steps, check yes
  max neighbors/atom: 2000, page size: 100000
  master list distance cutoff = 13
  ghost atom cutoff = 13
  binsize = 6.5, bins = 5 52 5
  3 neighbor lists, perpetual/occasional/extra = 3 0 0
  (1) pair coul/long, perpetual
      attributes: half, newton on
      pair build: half/bin/newton
      stencil: half/bin/3d/newton
      bin: standard
  (2) pair eam/alloy, perpetual, skip from (1)
      attributes: half, newton on
      pair build: skip
      stencil: none
      bin: none
  (3) pair table, perpetual, skip from (1)
      attributes: half, newton on
      pair build: skip
      stencil: none
      bin: none
Setting up Verlet run ...
  Unit style    : metal
  Current step  : 112
  Time step     : 0.001
Per MPI rank memory allocation (min/avg/max) = 9.215 | 9.848 | 10.04 Mbytes
Step Dt Time Atoms Temp PotEng KinEng Press Volume 
     112        0.001            0    17700         1200   -231713.65    2745.3304    11564.659    261074.01 
   10000        0.001        9.888    17700    1195.3316   -229064.81      2734.65   -501.08106    269848.67 
   20000        0.001       19.888    17700    1188.1514    -229037.7    2718.2234   -573.83397    270020.82 
   30000        0.001       29.888    17700    1203.2438   -229027.71    2752.7515     235.6344    269666.61 
   40000        0.001       39.888    17700    1202.0087   -229084.36    2749.9258   -348.98509    269766.34 
   50000        0.001       49.888    17700    1195.7312   -229071.76    2735.5642    613.75692    269633.43 
   60000        0.001       59.888    17700    1210.6419   -229035.09    2769.6767    1008.0858    269564.27 
   70000        0.001       69.888    17700    1197.7124   -229026.83    2740.0968    465.91798    269817.96 
   80000        0.001       79.888    17700    1202.0785   -229046.08    2750.0855    2376.9763    269507.82 
   90000        0.001       89.888    17700    1205.0653    -229077.2    2756.9186    599.95073    269633.85 
  100000        0.001       99.888    17700    1200.8022   -229061.28    2747.1656    379.90637    269737.25 
  100112        0.001          100    17700    1192.0431   -229045.75    2727.1268    55.293917    269834.64 
Loop time of 880.203 on 52 procs for 100000 steps with 17700 atoms

Performance: 9.816 ns/day, 2.445 hours/ns, 113.610 timesteps/s
99.8% CPU use with 52 MPI tasks x 1 OpenMP threads

MPI task timing breakdown:
Section |  min time  |  avg time  |  max time  |%varavg| %total
---------------------------------------------------------------
Pair    | 510.74     | 540.94     | 557.58     |  42.9 | 61.46
Bond    | 0.010479   | 0.0149     | 0.020568   |   2.0 |  0.00
Kspace  | 181.64     | 199.71     | 232.08     |  75.5 | 22.69
Neigh   | 6.7429     | 8.2967     | 8.8983     |  19.5 |  0.94
Comm    | 22.867     | 24.174     | 25.697     |  14.3 |  2.75
Output  | 0.054662   | 0.054703   | 0.05655    |   0.1 |  0.01
Modify  | 92.524     | 98.431     | 104.17     |  26.3 | 11.18
Other   |            | 8.578      |            |       |  0.97

Nlocal:        340.385 ave         364 max         298 min
Histogram: 3 1 4 0 0 7 19 5 3 10
Nghost:        5429.60 ave        5636 max        5162 min
Histogram: 4 4 2 5 5 3 9 9 5 6
Neighs:       104952.0 ave      113855 max       78451 min
Histogram: 3 1 0 1 3 0 3 14 14 13

Total # of neighbors = 5457493
Ave neighs/atom = 308.33294
Ave special neighs/atom = 0.0000000
Neighbor list builds = 2683
Dangerous builds = 0
WARNING: Shell command 'mkdir' failed with error 'File exists' (../input.cpp:1197)
System init for write_data ...
PPPM initialization ...
  using 12-bit tables for long-range coulomb (../kspace.cpp:328)
  G vector (1/distance) = 0.29848558
  grid = 40 240 40
  stencil order = 5
  estimated absolute RMS force accuracy = 0.00015857524
  estimated relative force accuracy = 1.1012441e-05
  using single precision MKL FFT
  3d grid and FFT values/proc = 18225 7600
Neighbor list info ...
  update every 1 steps, delay 0 steps, check yes
  max neighbors/atom: 2000, page size: 100000
  master list distance cutoff = 13
  ghost atom cutoff = 13
  binsize = 6.5, bins = 5 53 5
  3 neighbor lists, perpetual/occasional/extra = 3 0 0
  (1) pair coul/long, perpetual
      attributes: half, newton on
      pair build: half/bin/newton
      stencil: half/bin/3d/newton
      bin: standard
  (2) pair eam/alloy, perpetual, skip from (1)
      attributes: half, newton on
      pair build: skip
      stencil: none
      bin: none
  (3) pair table, perpetual, skip from (1)
      attributes: half, newton on
      pair build: skip
      stencil: none
      bin: none
Total wall time: 0:14:43
