LAMMPS (29 Oct 2020)
OMP_NUM_THREADS environment is not set. Defaulting to 1 thread. (../comm.cpp:94)
  using 1 OpenMP thread(s) per MPI task
OMP_NUM_THREADS environment is not set. Defaulting to 1 thread. (../comm.cpp:94)
  using 1 OpenMP thread(s) per MPI task
Reading data file ...
  orthogonal box = (-0.46915514 -5.6066616 -0.46302828) to (27.809155 333.68666 27.803028)
  2 by 13 by 2 MPI processor grid
  reading atoms ...
  17760 atoms
  reading velocities ...
  17760 velocities
Finding 1-2 1-3 1-4 neighbors ...
  special bond factors lj:    0.0      0.0      0.0     
  special bond factors coul:  0.0      0.0      0.0     
     0 = max # of 1-2 neighbors
     0 = max # of 1-3 neighbors
     0 = max # of 1-4 neighbors
     1 = max # of special neighbors
  special bonds CPU = 0.004 seconds
  read_data CPU = 0.064 seconds
WARNING: 13 of 1000 force values in table Xe-Xe are inconsistent with -dE/dr.
  Should only be flagged at inflection points (../pair_table.cpp:461)
WARNING: 2 of 1000 force values in table Xe-O are inconsistent with -dE/dr.
  Should only be flagged at inflection points (../pair_table.cpp:461)
WARNING: 2 of 1000 force values in table Xe-Th are inconsistent with -dE/dr.
  Should only be flagged at inflection points (../pair_table.cpp:461)
Setting atom values ...
  11760 settings made for charge
Setting atom values ...
  5880 settings made for charge
Setting atom values ...
  120 settings made for charge
PPPM initialization ...
  using 12-bit tables for long-range coulomb (../kspace.cpp:328)
  G vector (1/distance) = 0.29838445
  grid = 40 240 40
  stencil order = 5
  estimated absolute RMS force accuracy = 0.00015912907
  estimated relative force accuracy = 1.1050902e-05
  using single precision MKL FFT
  3d grid and FFT values/proc = 18225 7600
Neighbor list info ...
  update every 1 steps, delay 0 steps, check yes
  max neighbors/atom: 2000, page size: 100000
  master list distance cutoff = 13
  ghost atom cutoff = 13
  binsize = 6.5, bins = 5 53 5
  3 neighbor lists, perpetual/occasional/extra = 3 0 0
  (1) pair coul/long, perpetual
      attributes: half, newton on
      pair build: half/bin/newton
      stencil: half/bin/3d/newton
      bin: standard
  (2) pair eam/alloy, perpetual, skip from (1)
      attributes: half, newton on
      pair build: skip
      stencil: none
      bin: none
  (3) pair table, perpetual, skip from (1)
      attributes: half, newton on
      pair build: skip
      stencil: none
      bin: none
Setting up Verlet run ...
  Unit style    : metal
  Current step  : 0
  Time step     : 0.001
Per MPI rank memory allocation (min/avg/max) = 9.239 | 9.949 | 10.03 Mbytes
Step Temp E_pair E_mol TotEng Press 
       0         1200    -228711.4            0   -225956.76    -27.60788 
   50000     1208.411   -228739.97            0   -225966.02   -677.05892 
Loop time of 366.095 on 52 procs for 50000 steps with 17760 atoms

Performance: 11.800 ns/day, 2.034 hours/ns, 136.576 timesteps/s
99.8% CPU use with 52 MPI tasks x 1 OpenMP threads

MPI task timing breakdown:
Section |  min time  |  avg time  |  max time  |%varavg| %total
---------------------------------------------------------------
Pair    | 255.5      | 262.89     | 271.44     |  22.8 | 71.81
Bond    | 0.003912   | 0.0066958  | 0.0096791  |   1.6 |  0.00
Kspace  | 77.388     | 85.466     | 92.222     |  39.1 | 23.35
Neigh   | 3.5408     | 3.7461     | 3.9756     |   5.6 |  1.02
Comm    | 10.233     | 11.363     | 13.292     |  20.7 |  3.10
Output  | 5.3721e-05 | 6.0045e-05 | 0.00031372 |   0.0 |  0.00
Modify  | 1.1621     | 1.6857     | 3.1286     |  56.9 |  0.46
Other   |            | 0.9391     |            |       |  0.26

Nlocal:        341.538 ave         373 max         325 min
Histogram: 6 8 10 8 9 4 5 1 0 1
Nghost:        5478.69 ave        5611 max        5388 min
Histogram: 5 11 11 5 1 3 4 4 4 4
Neighs:       104616.0 ave      116886 max       97938 min
Histogram: 9 6 7 8 8 6 6 1 0 1

Total # of neighbors = 5440021
Ave neighs/atom = 306.30749
Ave special neighs/atom = 0.0000000
Neighbor list builds = 1226
Dangerous builds = 0
11760 atoms in group oxygen
PPPM initialization ...
  using 12-bit tables for long-range coulomb (../kspace.cpp:328)
  G vector (1/distance) = 0.29838445
  grid = 40 240 40
  stencil order = 5
  estimated absolute RMS force accuracy = 0.00015912907
  estimated relative force accuracy = 1.1050902e-05
  using single precision MKL FFT
  3d grid and FFT values/proc = 18225 7600
Neighbor list info ...
  update every 1 steps, delay 0 steps, check yes
  max neighbors/atom: 2000, page size: 100000
  master list distance cutoff = 13
  ghost atom cutoff = 13
  binsize = 6.5, bins = 5 53 5
  3 neighbor lists, perpetual/occasional/extra = 3 0 0
  (1) pair coul/long, perpetual
      attributes: half, newton on
      pair build: half/bin/newton
      stencil: half/bin/3d/newton
      bin: standard
  (2) pair eam/alloy, perpetual, skip from (1)
      attributes: half, newton on
      pair build: skip
      stencil: none
      bin: none
  (3) pair table, perpetual, skip from (1)
      attributes: half, newton on
      pair build: skip
      stencil: none
      bin: none
Setting up Verlet run ...
  Unit style    : metal
  Current step  : 0
  Time step     : 0.001
Per MPI rank memory allocation (min/avg/max) = 9.465 | 10.16 | 10.28 Mbytes
Step f_2 Temp v_Tdiff v_deltaT 
       0            0     1208.411            0            0 
  100000    1286.8438    1211.8334  0.050552545    586.91035 
  200000    2501.8233    1206.1156  0.059507002    690.87077 
  300000    3719.8789    1201.7682   0.06102932    708.54473 
  400000    4949.2455     1210.354  0.057668843    669.52991 
  500000    6178.0572     1208.576  0.059729178     693.4502 
  600000    7407.7444    1198.1092  0.060827261    706.19885 
  700000    8626.7232     1201.978  0.060117432     697.9578 
  800000    9835.3922    1218.8795  0.062594235    726.71325 
  900000    11047.086    1209.5403  0.060989017    708.07682 
 1000000    12265.654    1204.7651  0.060277365    699.81461 
Loop time of 7240.05 on 52 procs for 1000000 steps with 17760 atoms

Performance: 11.934 ns/day, 2.011 hours/ns, 138.121 timesteps/s
99.8% CPU use with 52 MPI tasks x 1 OpenMP threads

MPI task timing breakdown:
Section |  min time  |  avg time  |  max time  |%varavg| %total
---------------------------------------------------------------
Pair    | 5072.8     | 5209.2     | 5367.9     |  81.3 | 71.95
Bond    | 0.085403   | 0.13818    | 0.23339    |   7.2 |  0.00
Kspace  | 1546.2     | 1679.3     | 1794.4     | 127.1 | 23.19
Neigh   | 79.359     | 84.803     | 89.399     |  25.6 |  1.17
Comm    | 202.28     | 226.77     | 256.58     |  85.2 |  3.13
Output  | 0.0011875  | 0.0012484  | 0.0024311  |   0.5 |  0.00
Modify  | 7.13       | 7.739      | 9.2066     |  14.4 |  0.11
Other   |            | 32.09      |            |       |  0.44

Nlocal:        341.538 ave         366 max         328 min
Histogram: 7 10 4 11 8 4 3 2 2 1
Nghost:        5492.42 ave        5635 max        5384 min
Histogram: 7 8 10 3 0 5 10 1 1 7
Neighs:       104626.0 ave      113487 max       96942 min
Histogram: 2 7 7 6 5 7 10 5 1 2

Total # of neighbors = 5440569
Ave neighs/atom = 306.33834
Ave special neighs/atom = 0.0000000
Neighbor list builds = 27882
Dangerous builds = 0
Total wall time: 2:06:46
