ITEM: TIMESTEP
10000
ITEM: NUMBER OF ATOMS
17760
ITEM: BOX BOUNDS pp pp pp
-2.7717828229332220e-01 2.7617178282293317e+01
-3.4472205766305355e+00 3.3152722057663055e+02
-2.7717827830221448e-01 2.7617178278302212e+01
ITEM: ATOMS id type q x y z
1 2 2.2208 5.30496 2.11076 5.2746
2 1 -1.1104 1.09579 -2.06294 1.10396
3 1 -1.1104 1.00367 3.46202 1.0106
4 1 -1.1104 1.07653 -2.08692 3.93487
5 1 -1.1104 1.16623 3.56289 4.00197
6 1 -1.1104 1.08814 0.567673 1.08871
7 2 2.2208 5.29704 -0.802259 2.4088
8 1 -1.1104 0.916516 0.681025 3.79768
9 1 -1.1104 3.79866 -2.15799 0.908767
10 1 -1.1104 3.88329 3.56797 1.05539
11 2 2.2208 2.50098 2.11548 2.49247
12 1 -1.1104 4.01444 -2.13213 3.77861
13 1 -1.1104 3.95209 3.67564 3.8398
14 2 2.2208 2.4684 -0.638433 5.21885
15 2 2.2208 2.44427 4.8678 5.38566
16 1 -1.1104 3.93931 0.622646 1.07621
17 1 -1.1104 3.70539 0.694045 3.86494
18 2 2.2208 5.20607 5.09678 2.46414
36 1 -1.1104 6.64342 3.5835 1.17012
33 1 -1.1104 6.59613 3.70346 3.83243
38 1 -1.1104 6.55403 0.750236 1.10306
26 1 -1.1104 3.87953 3.51496 6.57653
678 2 2.2208 13.6185 7.64479 13.5808
21 1 -1.1104 0.963526 -1.9509 6.59221
23 1 -1.1104 6.7079 3.53101 6.51913
34 1 -1.1104 6.79989 -2.20615 3.87349
22 1 -1.1104 1.13373 0.731807 6.54083
679 2 2.2208 13.4756 2.11522 13.7012
19 2 2.2208 5.30129 -3.4709 5.2684
210 2 2.2208 13.4892 4.91747 5.24499
9077 2 2.2208 -0.30772 -3.30247 5.34504
27 1 -1.1104 6.56727 -2.00992 1.05098
32 1 -1.1104 6.50582 0.671683 3.84079
63 2 2.2208 8.07471 -3.47746 2.51683
9180 2 2.2208 -0.259823 7.71084 10.7337
126 2 2.2208 13.5853 7.66041 8.02774
39 2 2.2208 10.9189 2.04323 5.14592
40 1 -1.1104 12.1548 -2.21245 1.06933
41 1 -1.1104 12.4168 3.4421 1.02039
42 1 -1.1104 12.3699 -2.14106 3.94195
43 1 -1.1104 12.1912 3.51245 3.80419
44 1 -1.1104 12.2656 0.501233 1.1945
45 2 2.2208 10.7606 -0.747305 2.57278
46 1 -1.1104 12.2474 0.582497 3.80228
47 1 -1.1104 9.32749 -2.07226 1.14265
48 1 -1.1104 9.52245 3.41385 1.18166
49 2 2.2208 8.03141 2.19749 2.48799
50 1 -1.1104 9.549 -2.22889 3.87713
51 1 -1.1104 9.33034 3.54801 3.91554
52 2 2.2208 8.05698 -0.653434 5.38347
53 1 -1.1104 9.41116 0.744082 1.13533
54 1 -1.1104 9.54476 0.628537 3.94252
55 2 2.2208 8.12824 4.95247 5.28311
56 2 2.2208 10.8318 4.94606 2.35651
242 2 2.2208 13.723 18.9002 2.3631
212 2 2.2208 5.17362 -3.40159 11.0049
188 2 2.2208 13.4988 21.6199 5.18375
9046 2 2.2208 -0.343841 18.8074 5.18108
62 1 -1.1104 12.2482 0.685509 6.69193
59 1 -1.1104 9.44229 -1.90386 6.63378
58 1 -1.1104 12.1666 3.53464 6.65914
60 1 -1.1104 9.55091 0.862104 6.699
57 1 -1.1104 9.44178 3.54141 6.73258
191 2 2.2208 13.4625 4.89211 10.9151
65 2 2.2208 5.28392 7.66067 5.22762
66 2 2.2208 5.27679 13.3109 5.33592
67 1 -1.1104 1.32093 9.0008 0.959845
68 1 -1.1104 1.07988 9.1239 3.7033
69 1 -1.1104 1.06573 6.19126 1.08176
70 1 -1.1104 1.04695 11.8122 1.04414
71 2 2.2208 5.37595 10.5852 2.37562
72 1 -1.1104 1.15503 6.27324 3.8038
73 1 -1.1104 1.14661 11.8893 3.82861
74 1 -1.1104 3.97955 9.19508 0.947949
75 2 2.2208 2.52108 7.709 2.47033
76 2 2.2208 2.45068 13.3952 2.39087
77 1 -1.1104 3.87765 9.05341 3.84436
78 2 2.2208 2.46442 10.5027 5.24946
79 1 -1.1104 3.89407 6.57405 1.04371
80 1 -1.1104 3.78512 11.87 1.06487
81 1 -1.1104 3.80339 6.41236 4.0783
82 1 -1.1104 3.92721 11.8349 3.71523
83 1 -1.1104 6.78949 6.33798 3.99149
93 1 -1.1104 6.57044 9.18376 3.86624
92 1 -1.1104 6.77281 11.9083 1.08477
84 1 -1.1104 6.77146 9.07874 1.06903
98 1 -1.1104 6.84316 12.0434 3.90987
97 1 -1.1104 6.72579 6.28953 6.71522
94 1 -1.1104 1.0951 6.32357 6.72105
87 1 -1.1104 1.07324 9.11749 6.55093
85 1 -1.1104 3.85637 12.0681 6.62647
89 1 -1.1104 6.54997 8.97834 6.67395
324 2 2.2208 13.6603 10.5106 10.792
152 1 -1.1104 12.0846 17.5023 12.0241
64 2 2.2208 13.6365 -0.767219 5.34968
214 2 2.2208 10.6965 21.5973 7.92317
9181 2 2.2208 -0.245707 7.73758 5.15947
88 1 -1.1104 6.44128 6.28404 1.09417
684 2 2.2208 5.30189 -0.652739 13.6719
99 2 2.2208 10.9218 7.80328 5.23463
100 2 2.2208 10.9699 13.3788 5.29633
101 1 -1.1104 12.2195 9.01252 1.20522
102 1 -1.1104 12.2646 9.1133 3.87157
103 1 -1.1104 12.2408 6.21278 0.978227
104 1 -1.1104 12.3162 11.785 1.00669
105 2 2.2208 10.9496 10.4808 2.52194
106 1 -1.1104 12.3675 6.30004 3.73332
107 1 -1.1104 12.4225 11.8785 3.90915
108 1 -1.1104 9.42062 9.12652 1.25971
109 2 2.2208 8.10614 7.75484 2.49092
110 2 2.2208 8.16746 13.371 2.62005
111 1 -1.1104 9.32113 9.16684 3.9564
112 2 2.2208 8.06932 10.6009 5.27822
113 1 -1.1104 9.46486 6.27138 1.17424
114 1 -1.1104 9.45874 11.9677 1.17041
115 1 -1.1104 9.59007 6.29618 3.83556
116 1 -1.1104 9.63124 11.8825 3.95706
125 2 2.2208 13.6206 -0.722568 10.9044
121 1 -1.1104 6.7469 11.8338 6.69701
122 1 -1.1104 12.2722 9.11272 6.75301
117 1 -1.1104 9.48651 9.28449 6.68511
119 1 -1.1104 12.2772 6.31368 6.57976
30 1 -1.1104 9.42472 20.2793 12.2487
96 2 2.2208 7.95991 18.7446 8.03381
127 2 2.2208 5.22706 18.7947 5.35764
128 1 -1.1104 1.07705 14.7492 1.02285
129 1 -1.1104 1.13277 20.2724 1.09038
130 1 -1.1104 0.962138 14.6703 3.68727
131 1 -1.1104 1.05643 20.15 3.84482
132 1 -1.1104 1.04795 17.4824 0.948788
133 2 2.2208 5.19704 16.0629 2.43923
134 2 2.2208 5.2697 21.656 2.5293
135 1 -1.1104 1.1035 17.349 3.78027
136 1 -1.1104 3.99536 14.7303 1.04646
137 1 -1.1104 3.97201 20.2249 1.00977
138 2 2.2208 2.5949 18.8133 2.45436
139 1 -1.1104 3.91705 14.5958 3.88598
140 1 -1.1104 3.83911 20.1895 3.8007
141 2 2.2208 2.527 16.0715 5.26509
142 2 2.2208 2.29598 21.6468 5.25589
143 1 -1.1104 3.81672 17.5415 0.930473
144 1 -1.1104 3.90214 17.4757 3.78912
159 1 -1.1104 6.84784 20.2765 1.08104
160 1 -1.1104 6.64165 20.2215 3.85555
155 1 -1.1104 6.46206 17.5431 1.06837
162 1 -1.1104 6.45714 20.227 6.62897
158 1 -1.1104 6.66104 14.6023 1.17952
145 1 -1.1104 6.77324 17.288 3.87469
150 1 -1.1104 1.04106 14.7121 6.68618
146 1 -1.1104 1.13768 17.4487 6.63785
300 1 -1.1104 3.69418 20.2288 6.56056
151 1 -1.1104 3.85619 14.6628 6.72504
149 1 -1.1104 0.883228 20.3393 6.64996
274 2 2.2208 7.99681 21.7683 10.7685
156 1 -1.1104 9.21362 20.2125 6.71102
182 1 -1.1104 12.0275 20.2642 6.50401
161 1 -1.1104 6.58709 14.6496 3.99593
700 2 2.2208 10.8773 21.661 13.5692
163 2 2.2208 10.7608 18.7994 5.12488
164 1 -1.1104 12.3606 14.6665 1.06332
165 1 -1.1104 12.2418 20.1137 1.07078
166 1 -1.1104 12.2107 14.4509 3.75731
167 1 -1.1104 12.143 20.1735 3.77501
168 1 -1.1104 12.136 17.3374 0.988511
169 2 2.2208 10.9247 16.0313 2.51493
170 2 2.2208 10.7727 21.5823 2.45019
171 1 -1.1104 12.3102 17.3063 3.89655
172 1 -1.1104 9.55404 14.6856 1.07224
173 1 -1.1104 9.59554 20.234 1.09875
174 2 2.2208 8.04622 18.6887 2.42668
175 1 -1.1104 9.4469 14.5953 3.97691
176 1 -1.1104 9.35789 20.1546 3.97762
177 2 2.2208 8.03513 15.9655 5.35514
178 2 2.2208 7.98357 21.581 5.34109
179 1 -1.1104 9.35459 17.4412 1.02026
180 1 -1.1104 9.42137 17.221 3.82851
183 1 -1.1104 9.55427 14.5827 6.79735
9075 2 2.2208 -0.382156 4.79806 2.55336
154 1 -1.1104 6.69875 17.4336 6.64642
325 2 2.2208 13.6047 18.9028 7.9939
25 1 -1.1104 3.79946 0.713177 6.71209
35 1 -1.1104 6.62533 0.785206 6.59069
244 1 -1.1104 9.42516 14.8188 9.55442
333 2 2.2208 2.50048 -0.634636 -0.322462
24 1 -1.1104 1.02604 3.43732 6.77528
28 1 -1.1104 3.82395 -1.95838 6.73603
192 2 2.2208 5.34614 2.11021 10.8469
193 1 -1.1104 1.00677 -2.31989 12.2768
194 1 -1.1104 1.14532 3.41613 12.3588
195 1 -1.1104 1.07154 -2.07873 9.4233
196 1 -1.1104 1.04617 3.5881 9.56024
197 1 -1.1104 1.17607 0.557493 12.193
198 2 2.2208 5.27784 -0.697005 8.07499
199 1 -1.1104 1.11325 0.791537 9.49232
200 1 -1.1104 3.87996 -2.09525 12.2235
201 1 -1.1104 3.93015 3.38898 12.416
202 2 2.2208 2.41665 2.15757 7.9932
203 1 -1.1104 3.8216 -2.20782 9.51444
204 1 -1.1104 3.93572 3.46128 9.39226
205 2 2.2208 2.49619 -0.67342 10.7335
206 2 2.2208 2.54215 4.88426 10.863
207 1 -1.1104 3.79051 0.676817 12.2355
208 1 -1.1104 3.94139 0.683485 9.46465
209 2 2.2208 5.27585 4.86515 7.98291
215 1 -1.1104 6.83911 0.754468 9.34987
217 1 -1.1104 6.62812 3.63348 12.2956
216 1 -1.1104 6.53199 -1.92195 9.65962
686 2 2.2208 8.00063 2.29311 13.5457
297 1 -1.1104 12.1786 14.6804 9.2405
298 2 2.2208 13.5679 16.0138 10.7797
213 1 -1.1104 12.2779 -2.02008 6.86076
698 2 2.2208 5.30478 21.8788 13.5117
61 1 -1.1104 6.75224 -2.06788 6.77944
223 1 -1.1104 6.6195 0.77759 12.2676
222 1 -1.1104 6.66421 -2.20625 12.3502
218 1 -1.1104 6.68959 3.49741 9.4185
224 2 2.2208 10.8284 2.15703 10.8483
225 1 -1.1104 12.3666 -1.98805 12.3814
226 1 -1.1104 12.0464 3.50668 12.217
227 1 -1.1104 12.1978 -2.13329 9.61674
228 1 -1.1104 12.3833 3.57528 9.34386
229 1 -1.1104 12.164 0.638966 12.3356
230 2 2.2208 10.8492 -0.663881 8.17768
231 1 -1.1104 12.2447 0.842648 9.61076
232 1 -1.1104 9.4049 -2.05445 12.1201
233 1 -1.1104 9.28926 3.58457 12.0626
234 2 2.2208 8.12705 2.08316 7.98483
235 1 -1.1104 9.4583 -2.23074 9.30269
236 1 -1.1104 9.56326 3.44451 9.35266
237 2 2.2208 8.0693 -0.73268 10.9297
238 2 2.2208 8.16408 5.00596 10.7805
239 1 -1.1104 9.47405 0.674798 12.197
240 1 -1.1104 9.44608 0.728143 9.5887
241 2 2.2208 10.8153 4.90009 8.03971
321 2 2.2208 10.8143 18.857 10.7342
181 1 -1.1104 12.1978 17.4044 6.53974
323 2 2.2208 7.95384 16.1352 10.8586
246 1 -1.1104 12.2777 20.2286 12.0748
91 1 -1.1104 3.86382 9.2858 6.5915
90 1 -1.1104 1.13807 11.8756 6.62234
86 1 -1.1104 3.90863 6.22406 6.61636
249 2 2.2208 5.32411 7.6814 10.7932
250 2 2.2208 5.24946 13.3471 10.8505
251 1 -1.1104 0.877738 9.13466 12.278
252 1 -1.1104 1.0341 9.10756 9.50084
253 1 -1.1104 1.14401 6.33078 12.0884
254 1 -1.1104 1.14156 11.9287 12.2275
255 2 2.2208 5.21599 10.63 8.16168
256 1 -1.1104 1.20533 6.26919 9.50279
257 1 -1.1104 1.14541 11.9219 9.56018
258 1 -1.1104 3.77476 9.0778 12.1227
259 2 2.2208 2.51121 7.82288 8.03446
260 2 2.2208 2.46934 13.3136 8.04962
261 1 -1.1104 3.88527 9.06058 9.42018
262 2 2.2208 2.41273 10.5077 10.9221
263 1 -1.1104 4.00114 6.28576 12.031
264 1 -1.1104 3.81338 11.9107 12.3472
265 1 -1.1104 3.95352 6.38715 9.433
266 1 -1.1104 3.82967 11.883 9.4232
268 1 -1.1104 6.67725 11.942 9.51409
270 1 -1.1104 6.68348 9.15752 9.47303
273 1 -1.1104 6.63751 6.26435 9.47353
271 1 -1.1104 6.61549 11.8436 12.2029
269 1 -1.1104 6.66666 9.10974 12.2135
248 1 -1.1104 12.2547 17.3747 9.29241
681 2 2.2208 2.53923 2.0848 13.6731
118 1 -1.1104 9.43165 6.46108 6.56203
267 1 -1.1104 6.7691 6.41623 12.2603
184 1 -1.1104 9.32792 17.4272 6.57885
123 1 -1.1104 12.1804 11.8682 6.76805
124 1 -1.1104 9.58403 11.9139 6.80392
277 1 -1.1104 9.47815 11.8087 9.52459
278 1 -1.1104 9.34768 6.34582 9.48518
279 1 -1.1104 9.45698 11.9261 12.1556
280 1 -1.1104 9.56594 6.38309 12.3305
281 2 2.2208 8.00847 10.4142 10.8788
282 1 -1.1104 9.57187 9.10696 9.57614
283 2 2.2208 8.16826 13.1926 8.18702
284 2 2.2208 7.99848 7.74649 8.09856
285 2 2.2208 10.8633 7.74277 10.9442
286 2 2.2208 10.842 13.3899 10.7399
287 1 -1.1104 12.385 9.16337 12.2697
288 1 -1.1104 12.3074 9.19408 9.39155
289 1 -1.1104 12.1841 6.39176 12.3372
290 1 -1.1104 12.3811 11.953 12.3545
291 2 2.2208 10.885 10.479 8.15805
292 1 -1.1104 12.0349 6.28328 9.54277
293 1 -1.1104 12.458 12.0603 9.54394
294 1 -1.1104 9.67695 9.0708 12.3668
243 1 -1.1104 9.41264 20.0797 9.432
693 2 2.2208 10.9604 10.6542 13.667
694 2 2.2208 7.94278 13.2238 13.5607
299 1 -1.1104 9.29642 17.5426 12.2636
245 1 -1.1104 9.25655 14.816 12.2625
157 1 -1.1104 12.3829 14.745 6.49989
302 1 -1.1104 6.68601 20.2563 12.0821
148 1 -1.1104 6.79883 14.6432 6.77027
147 1 -1.1104 4.06934 17.332 6.51778
301 1 -1.1104 6.55698 14.6191 12.2159
303 1 -1.1104 3.89282 14.6679 9.37155
304 1 -1.1104 3.91049 17.5054 9.40466
305 1 -1.1104 0.96197 17.3757 12.3429
306 2 2.2208 2.48861 16.0421 10.8526
307 2 2.2208 2.50188 21.5585 10.9105
308 1 -1.1104 3.79571 17.4654 12.3002
309 1 -1.1104 3.97997 20.2578 12.0384
310 1 -1.1104 3.92663 14.7496 12.2076
311 1 -1.1104 1.30413 20.205 9.22829
312 1 -1.1104 1.06388 17.4417 9.54454
313 2 2.2208 5.21373 21.6693 7.98639
314 1 -1.1104 1.14408 14.6792 9.49142
315 2 2.2208 5.29936 15.913 7.97135
316 1 -1.1104 1.13092 20.1288 12.1195
317 1 -1.1104 1.09725 14.6999 12.2825
318 2 2.2208 5.33677 18.8593 10.7556
319 1 -1.1104 3.96509 20.2897 9.40157
320 2 2.2208 2.50898 18.8392 7.98131
296 1 -1.1104 6.57412 20.4036 9.41587
247 1 -1.1104 6.63072 17.4523 12.2177
272 1 -1.1104 6.71938 14.6914 9.56608
276 1 -1.1104 6.63295 17.4057 9.46477
322 1 -1.1104 12.1417 20.2468 9.29935
31 1 -1.1104 12.2449 14.6826 12.2276
95 1 -1.1104 9.47775 17.3277 9.42748
295 2 2.2208 13.6058 21.6585 10.6547
221 2 2.2208 10.8544 16.1105 7.99512
699 2 2.2208 10.8156 16.0648 13.5605
697 2 2.2208 5.25988 16.2415 13.6799
692 2 2.2208 13.7021 13.3567 13.6629
676 2 2.2208 8.06322 18.9599 13.5653
346 2 2.2208 8.06975 10.5284 -0.304953
695 2 2.2208 13.6286 18.8613 13.4173
688 2 2.2208 5.18312 10.5609 13.7251
335 2 2.2208 7.91877 5.0137 -0.173703
339 2 2.2208 10.8069 2.04825 -0.203621
689 2 2.2208 2.46453 7.71415 13.515
351 2 2.2208 5.36802 2.31488 16.4999
352 1 -1.1104 0.939317 -1.86759 17.7527
353 1 -1.1104 1.07659 3.58228 17.7825
354 1 -1.1104 1.21536 -2.06437 15.0489
355 1 -1.1104 1.02032 3.47078 14.9879
356 1 -1.1104 0.998837 0.819086 17.682
357 2 2.2208 5.15078 -0.694589 19.2158
358 1 -1.1104 1.07254 0.721442 14.9582
359 1 -1.1104 3.92083 -2.04166 17.8873
360 1 -1.1104 3.88488 3.59962 17.7719
361 2 2.2208 2.40979 2.15232 19.1413
362 1 -1.1104 4.0407 -2.14542 15.0926
363 1 -1.1104 3.97652 3.55465 15.0599
364 2 2.2208 2.46311 -0.650855 16.5007
365 1 -1.1104 3.83157 0.90111 17.8506
366 1 -1.1104 3.87318 0.66171 15.1836
367 2 2.2208 2.4537 4.89104 16.2246
368 2 2.2208 5.17638 5.08254 19.164
383 1 -1.1104 6.6766 -2.06166 17.7608
369 1 -1.1104 6.69721 3.67055 17.8043
382 1 -1.1104 6.69324 3.64652 14.9858
381 1 -1.1104 6.63609 -1.98606 14.9604
412 2 2.2208 13.4873 2.07105 24.8168
375 1 -1.1104 3.77233 0.687328 20.7166
374 1 -1.1104 0.942642 0.872633 20.4604
370 1 -1.1104 6.68339 0.98866 14.9386
380 1 -1.1104 6.71692 0.721391 17.7554
377 1 -1.1104 6.7451 3.51172 20.7463
376 1 -1.1104 0.933623 -1.80117 20.6022
372 1 -1.1104 0.849719 3.59981 20.515
532 2 2.2208 13.6944 2.08409 19.2986
561 2 2.2208 10.8575 -3.40583 21.9295
384 2 2.2208 10.8506 2.27882 16.5468
385 1 -1.1104 12.3131 -2.06569 17.7912
386 1 -1.1104 12.2353 3.50836 18.0384
387 1 -1.1104 12.3511 -2.06766 15.0627
388 1 -1.1104 12.1795 3.498 15.1125
389 1 -1.1104 12.1028 0.660188 17.8218
390 2 2.2208 10.8053 -0.657771 19.1339
392 1 -1.1104 12.2405 0.68913 15.1525
393 1 -1.1104 9.46554 -1.93901 17.7986
394 1 -1.1104 9.57293 3.61951 17.8747
395 2 2.2208 8.1182 2.30288 19.0909
396 1 -1.1104 9.42727 -2.11185 15.0615
397 1 -1.1104 9.46502 3.73579 15.0348
398 2 2.2208 7.90086 -0.608762 16.3845
399 1 -1.1104 9.2408 0.938447 17.6616
400 1 -1.1104 9.41675 0.748103 14.9649
401 2 2.2208 7.95321 5.01282 16.3754
391 2 2.2208 10.8534 4.97715 19.3708
327 2 2.2208 13.5316 21.726 27.5989
501 2 2.2208 10.9134 -3.40375 16.5494
581 2 2.2208 2.5069 -3.305 19.238
406 2 2.2208 8.14625 -3.4291 19.1417
402 1 -1.1104 12.2423 3.51722 20.6961
408 1 -1.1104 12.1881 -2.03683 20.5549
410 1 -1.1104 9.36944 3.68862 20.6887
682 2 2.2208 5.22735 4.95923 13.5914
414 2 2.2208 5.13249 7.7717 16.2945
415 2 2.2208 5.23979 13.2763 16.3976
416 1 -1.1104 1.03997 9.09241 17.7727
417 1 -1.1104 1.25526 9.04986 14.9303
418 1 -1.1104 1.0112 6.41726 17.6401
419 1 -1.1104 1.03104 11.8008 17.7276
420 2 2.2208 5.04744 10.4517 19.185
421 1 -1.1104 1.04731 6.30465 14.8531
422 1 -1.1104 0.927185 11.7637 14.8886
423 1 -1.1104 3.84423 9.12735 17.6306
424 2 2.2208 2.31096 7.684 19.1137
425 2 2.2208 2.44437 13.3662 19.196
426 1 -1.1104 3.98401 9.1214 14.8544
427 2 2.2208 2.36514 10.4805 16.4512
428 1 -1.1104 3.78826 6.45247 17.7388
429 1 -1.1104 3.74131 11.92 17.784
430 1 -1.1104 3.80044 6.25725 14.7463
431 1 -1.1104 3.85115 11.9348 15.0149
438 1 -1.1104 1.15795 11.8942 20.5774
444 1 -1.1104 6.7356 11.8574 17.802
443 1 -1.1104 6.71326 9.22222 15.0567
432 1 -1.1104 6.59528 6.33603 17.9864
556 2 2.2208 2.6642 -3.41577 24.7422
436 1 -1.1104 3.78231 6.38972 20.5513
9237 2 2.2208 -0.140488 13.2146 27.5435
447 2 2.2208 13.6474 13.2271 19.2696
585 2 2.2208 8.07656 -3.42148 24.7645
445 1 -1.1104 6.63294 12.02 15.0358
439 1 -1.1104 6.57701 9.08064 17.7661
433 1 -1.1104 6.61484 6.3508 15.0439
448 2 2.2208 10.8696 7.75992 16.5154
449 2 2.2208 10.9353 13.2791 16.3667
450 1 -1.1104 12.1171 9.05613 17.9936
451 1 -1.1104 12.1292 8.95393 15.0991
452 1 -1.1104 12.2552 6.27767 17.7441
453 1 -1.1104 12.2689 11.8581 17.8469
454 2 2.2208 10.8901 10.4294 19.2326
455 1 -1.1104 12.2682 6.27822 15.1385
456 1 -1.1104 12.2368 11.9419 15.0751
457 1 -1.1104 9.38896 9.08192 17.9023
458 2 2.2208 7.97459 7.80949 19.1904
459 2 2.2208 8.1427 13.169 19.2267
460 1 -1.1104 9.54482 9.1093 15.1756
461 2 2.2208 8.05087 10.5093 16.4557
462 1 -1.1104 9.34956 6.31291 18.0111
463 1 -1.1104 9.51712 11.9021 17.8491
464 1 -1.1104 9.36042 6.36907 15.1094
465 1 -1.1104 9.31473 11.9375 14.9633
471 1 -1.1104 9.51426 11.8285 20.5779
470 1 -1.1104 12.385 11.887 20.602
340 2 2.2208 8.00699 -0.718016 27.5464
330 2 2.2208 5.2933 18.8032 27.3928
468 1 -1.1104 12.2537 6.30515 20.5878
467 1 -1.1104 9.24864 9.06787 20.6561
348 2 2.2208 10.978 13.267 27.548
554 2 2.2208 13.5714 -0.631437 21.8508
473 2 2.2208 5.30807 18.9372 16.3756
474 1 -1.1104 1.07605 14.7198 17.8891
475 1 -1.1104 1.01141 20.2496 17.6991
476 1 -1.1104 0.978251 14.5587 15.1071
477 1 -1.1104 1.11816 20.206 14.9171
478 1 -1.1104 0.982449 17.5544 17.8366
479 2 2.2208 5.29952 16.0069 19.2249
480 2 2.2208 5.28658 21.5654 19.1538
481 1 -1.1104 1.11837 17.4819 15.0023
482 1 -1.1104 3.83402 14.5795 17.8706
483 1 -1.1104 3.86414 20.2281 17.7424
484 2 2.2208 2.41198 18.8486 19.1592
485 1 -1.1104 3.72319 14.6071 15.1235
486 1 -1.1104 3.81372 20.3061 14.8059
487 2 2.2208 2.50785 16.1593 16.5455
488 2 2.2208 2.54508 21.6192 16.3595
489 1 -1.1104 3.80473 17.4509 17.8341
490 1 -1.1104 3.87877 17.4747 14.9976
493 1 -1.1104 0.993178 14.7165 20.6396
505 1 -1.1104 6.50261 14.9065 15.0862
506 1 -1.1104 6.67284 20.0769 17.695
499 1 -1.1104 6.67004 17.6162 15.0056
498 1 -1.1104 6.60218 17.4523 17.7865
504 1 -1.1104 6.77204 14.6226 17.8477
491 1 -1.1104 6.75476 20.3676 14.8496
495 1 -1.1104 3.80674 20.281 20.5462
492 1 -1.1104 0.97581 17.4756 20.563
637 1 -1.1104 3.90807 17.4058 20.535
496 1 -1.1104 6.6706 14.6281 20.6447
503 1 -1.1104 6.76232 17.3997 20.5875
584 2 2.2208 13.5692 18.8879 19.1293
527 1 -1.1104 12.321 20.3192 20.5132
529 1 -1.1104 12.2434 17.4736 20.428
507 2 2.2208 10.8914 18.8375 16.3068
508 1 -1.1104 12.2508 14.7461 17.7396
509 1 -1.1104 12.2279 20.4152 17.681
510 1 -1.1104 12.2364 14.614 14.9335
511 1 -1.1104 12.3156 20.1925 14.9266
512 1 -1.1104 12.277 17.6249 17.6875
513 2 2.2208 10.8322 16.0682 19.2814
514 2 2.2208 10.7933 21.746 19.0751
515 1 -1.1104 12.417 17.4678 14.9583
516 1 -1.1104 9.60418 14.7268 17.8454
517 1 -1.1104 9.45686 20.3217 17.7272
518 2 2.2208 8.16177 18.751 19.1493
519 1 -1.1104 9.36789 14.6411 15.0387
520 1 -1.1104 9.56979 20.2819 15.0352
521 2 2.2208 8.01626 16.0882 16.2301
522 2 2.2208 8.07761 21.6501 16.3345
523 1 -1.1104 9.5038 17.4798 17.8544
524 1 -1.1104 9.50328 17.3913 15.0494
526 1 -1.1104 9.42248 14.7789 20.6615
350 2 2.2208 2.53018 21.6991 27.6802
583 2 2.2208 13.5581 21.7256 16.299
558 2 2.2208 13.6445 4.90821 21.9896
525 1 -1.1104 9.39253 17.4896 20.7117
528 1 -1.1104 9.52374 20.1808 20.5486
670 1 -1.1104 12.1213 14.7908 20.8104
331 2 2.2208 5.29888 2.06656 27.5469
668 1 -1.1104 9.37053 20.1866 26.1727
662 1 -1.1104 9.51691 14.6613 23.3924
371 1 -1.1104 3.84471 3.52044 20.5828
373 1 -1.1104 3.90261 -2.0693 20.67
342 2 2.2208 5.25233 7.72275 27.5436
326 2 2.2208 8.0169 21.655 27.5308
533 2 2.2208 5.38072 2.18344 21.9744
534 1 -1.1104 1.18724 -1.99135 23.4721
535 1 -1.1104 1.01642 3.47307 23.2414
536 1 -1.1104 1.09458 -2.01183 26.2144
537 1 -1.1104 1.12063 3.70445 26.1063
538 1 -1.1104 0.942721 0.752602 23.4187
539 2 2.2208 5.2183 -0.703791 24.8136
540 1 -1.1104 1.07487 0.876151 26.1778
541 1 -1.1104 3.84058 -1.99788 23.3776
542 1 -1.1104 3.86741 3.52955 23.3452
543 2 2.2208 2.37703 2.15159 24.7185
544 1 -1.1104 3.97941 -2.0741 26.1348
545 1 -1.1104 3.82167 3.32372 26.2739
546 2 2.2208 2.50565 -0.61095 22.1045
547 1 -1.1104 3.94916 0.752455 23.3389
548 1 -1.1104 3.76728 0.749774 26.0805
549 2 2.2208 5.18567 4.91733 24.7948
550 2 2.2208 2.41198 4.85882 21.9667
551 1 -1.1104 6.55459 3.47926 26.4455
562 1 -1.1104 6.69038 -1.9233 23.349
552 1 -1.1104 6.86668 0.794012 23.3933
407 1 -1.1104 6.51093 0.707175 20.5829
555 1 -1.1104 6.78959 -2.10395 26.2157
409 1 -1.1104 6.74815 -1.96065 20.4567
404 1 -1.1104 9.30382 0.654722 20.455
9450 2 2.2208 -0.190217 -3.25785 21.8765
403 1 -1.1104 12.1628 0.882943 20.6368
560 1 -1.1104 6.57588 0.741072 26.1595
553 1 -1.1104 6.64192 3.52142 23.5038
413 2 2.2208 13.5914 -0.619534 16.5003
405 1 -1.1104 9.55242 -2.08369 20.6442
666 2 2.2208 10.9613 16.0863 24.785
338 2 2.2208 10.838 -3.38088 27.4934
563 2 2.2208 10.8038 2.0809 22.1166
564 1 -1.1104 12.3355 -1.98204 23.385
565 1 -1.1104 12.2276 3.44189 23.3886
566 1 -1.1104 12.1544 -2.04732 26.1118
567 1 -1.1104 12.2415 3.33159 26.3549
568 1 -1.1104 12.3291 0.641097 23.4075
569 2 2.2208 10.7892 -0.734949 24.8249
570 1 -1.1104 12.1789 0.579776 26.2615
571 1 -1.1104 9.62242 -2.03322 23.2747
572 1 -1.1104 9.43625 3.52083 23.471
573 2 2.2208 7.97343 2.24836 24.9033
574 1 -1.1104 9.57619 -1.98632 26.1229
575 1 -1.1104 9.34445 3.59013 26.3352
576 2 2.2208 7.98763 -0.600832 21.8265
577 1 -1.1104 9.42582 0.67852 23.544
578 1 -1.1104 9.35665 0.718161 26.222
579 2 2.2208 7.99413 4.98432 22.0164
580 2 2.2208 10.8435 4.91288 24.8763
638 2 2.2208 13.5383 21.5817 21.9241
641 1 -1.1104 12.3808 17.4965 26.1428
437 1 -1.1104 3.74531 9.09395 20.4147
442 1 -1.1104 1.01008 6.37012 20.5123
434 1 -1.1104 3.9505 11.8951 20.6149
435 1 -1.1104 1.01899 9.22447 20.5741
588 2 2.2208 5.23376 7.76904 21.974
589 2 2.2208 5.2504 13.1356 22.0747
590 1 -1.1104 1.0243 9.04317 23.3199
591 1 -1.1104 1.17108 9.19758 26.0407
592 1 -1.1104 0.95914 6.30438 23.4701
593 1 -1.1104 1.06234 11.9384 23.3262
594 2 2.2208 5.25595 10.4546 24.7902
595 1 -1.1104 1.06245 6.33298 26.0623
596 1 -1.1104 1.1371 11.847 26.1518
597 1 -1.1104 3.77407 9.11383 23.3237
598 2 2.2208 2.44761 7.70045 24.7356
599 2 2.2208 2.55074 13.3157 24.8043
600 1 -1.1104 3.81417 9.23074 26.1335
601 2 2.2208 2.49852 10.4727 21.9536
602 1 -1.1104 3.76675 6.2594 23.3748
603 1 -1.1104 3.9111 11.9077 23.4307
604 1 -1.1104 3.85665 6.43301 26.2686
605 1 -1.1104 3.84216 12.0285 26.2443
612 1 -1.1104 6.62235 6.09303 26.1364
614 1 -1.1104 6.50576 9.03456 23.538
440 1 -1.1104 6.45852 9.25187 20.6813
441 1 -1.1104 6.53903 6.3851 20.6984
610 1 -1.1104 6.60934 9.04263 26.315
606 1 -1.1104 6.5537 6.32345 23.6048
607 1 -1.1104 6.68102 11.9277 26.144
675 1 -1.1104 12.2375 20.0816 26.1423
634 1 -1.1104 12.3388 17.3884 23.3152
446 1 -1.1104 6.78941 11.7779 20.5585
609 1 -1.1104 6.65753 11.8415 23.5215
587 2 2.2208 13.6397 10.4129 22.0871
466 1 -1.1104 12.3256 9.04219 20.6506
469 1 -1.1104 9.4631 6.46873 20.7482
615 1 -1.1104 9.4046 9.0243 23.4503
616 1 -1.1104 12.3364 11.8193 26.0915
617 1 -1.1104 12.3392 6.18324 26.1448
618 2 2.2208 10.8006 10.4374 24.8731
619 1 -1.1104 12.2755 11.6801 23.4382
620 1 -1.1104 12.1984 6.33192 23.4873
621 1 -1.1104 12.3654 9.05868 26.2742
622 1 -1.1104 12.1316 9.00624 23.5551
623 1 -1.1104 9.40197 11.9067 26.1834
624 1 -1.1104 9.19777 6.35891 26.4014
625 1 -1.1104 9.52608 11.8361 23.2862
626 1 -1.1104 9.37388 6.31677 23.4307
627 2 2.2208 8.01719 10.4075 21.986
628 1 -1.1104 9.47569 9.11197 26.2681
629 2 2.2208 8.14268 13.2926 24.7487
630 2 2.2208 7.99397 7.66404 24.9348
631 2 2.2208 10.823 7.68855 22.1002
632 2 2.2208 10.8481 13.2079 22.0225
347 2 2.2208 10.8396 7.80735 27.5684
411 2 2.2208 10.8807 21.5472 24.6622
586 2 2.2208 13.7568 18.7575 24.7703
494 1 -1.1104 3.85225 14.7203 20.7115
672 2 2.2208 7.99668 21.504 21.87
673 1 -1.1104 6.59878 14.5952 23.3806
502 1 -1.1104 1.0413 20.342 20.6083
530 1 -1.1104 6.68759 20.156 20.4844
674 1 -1.1104 6.75854 14.6001 26.2516
639 1 -1.1104 6.58967 17.2299 26.2037
642 1 -1.1104 1.15315 14.5683 26.1331
643 2 2.2208 5.32034 21.5177 24.6519
644 2 2.2208 5.23155 16.0163 24.7413
645 1 -1.1104 3.81196 20.2631 23.3106
646 1 -1.1104 3.81398 14.5934 23.3877
647 1 -1.1104 1.08463 20.2381 26.1611
648 1 -1.1104 1.10593 17.578 26.1097
649 2 2.2208 2.42081 16.121 22.0012
650 2 2.2208 2.45591 21.6823 22.0198
651 1 -1.1104 3.9838 17.316 23.25
652 1 -1.1104 1.07825 17.3935 23.2873
653 1 -1.1104 3.81995 14.7532 26.2631
654 1 -1.1104 3.80977 17.4304 26.0647
655 2 2.2208 2.37596 18.9293 24.7011
656 1 -1.1104 3.97314 20.2163 25.9975
657 2 2.2208 5.29484 18.8284 21.873
658 1 -1.1104 1.06914 14.7278 23.4123
659 1 -1.1104 1.08176 20.1841 23.3706
640 1 -1.1104 6.81075 17.2794 23.5269
613 1 -1.1104 6.5702 20.2089 23.2229
611 1 -1.1104 6.71486 20.2938 26.0906
663 1 -1.1104 12.3127 14.5334 23.3154
669 2 2.2208 7.99082 16.0073 22.0113
636 1 -1.1104 9.5018 14.5198 26.1934
667 1 -1.1104 9.44996 17.3747 26.1117
665 2 2.2208 8.09556 18.8106 24.6601
635 2 2.2208 10.9451 18.8443 21.9472
661 1 -1.1104 12.2915 14.7027 26.1985
664 1 -1.1104 12.3424 20.1852 23.43
344 2 2.2208 10.8546 18.8099 27.5538
608 1 -1.1104 9.48482 17.5203 23.4478
671 1 -1.1104 9.49423 20.2418 23.3038
349 2 2.2208 2.43247 16.1685 27.5143
343 2 2.2208 5.24261 13.3443 27.6197
9236 2 2.2208 -0.265768 18.9143 27.5718
9424 2 2.2208 -0.216404 2.23467 16.4084
9476 2 2.2208 -0.27613 16.0107 24.8561
328 2 2.2208 8.06743 15.9491 27.6144
9225 2 2.2208 -0.0920132 -3.45959 27.5497
691 2 2.2208 8.1189 7.75705 13.7121
337 2 2.2208 13.684 16.1199 27.6467
341 2 2.2208 2.46122 10.5278 27.5762
685 2 2.2208 10.775 5.0038 13.7548
332 2 2.2208 2.45213 4.88146 27.5621
336 2 2.2208 13.6122 -0.715829 27.6683
687 2 2.2208 10.8281 -0.747422 13.7055
696 2 2.2208 2.59065 18.8323 13.6139
690 2 2.2208 2.44639 13.2996 13.6975
9571 2 2.2208 -0.233596 -0.696977 13.6412
701 2 2.2208 5.16128 24.3905 5.23552
702 2 2.2208 5.113 29.9619 5.08663
703 1 -1.1104 1.01257 25.8906 1.04011
704 1 -1.1104 1.03331 25.8059 3.86645
705 1 -1.1104 1.06069 23.0011 1.19026
706 1 -1.1104 1.05474 28.4193 0.951422
707 2 2.2208 5.26028 27.1279 2.23888
708 1 -1.1104 0.888847 23.0865 3.8287
709 1 -1.1104 1.038 28.5271 3.76793
710 1 -1.1104 3.80509 25.8848 0.996352
711 2 2.2208 2.37735 24.4552 2.52875
712 2 2.2208 2.30925 29.8873 2.35808
713 1 -1.1104 3.94636 25.8885 3.68226
714 2 2.2208 2.47731 27.1643 5.1785
715 1 -1.1104 3.97554 23.0296 1.19814
716 1 -1.1104 3.92679 28.7103 0.916418
717 1 -1.1104 3.78258 23.0561 3.9529
718 1 -1.1104 3.71723 28.6324 3.69595
719 1 -1.1104 6.64012 28.6827 3.70152
720 1 -1.1104 6.63605 28.6561 0.868121
724 1 -1.1104 3.89404 28.6923 6.55253
731 1 -1.1104 6.62947 25.8386 3.76737
730 1 -1.1104 6.58233 23.1634 3.89735
734 1 -1.1104 6.5006 22.9858 1.08425
725 1 -1.1104 0.961933 23.0525 6.66894
732 1 -1.1104 6.46608 25.8104 6.39202
721 1 -1.1104 6.55454 25.8673 0.813887
911 1 -1.1104 6.58935 23.0016 6.6681
733 1 -1.1104 6.58858 28.5067 6.28991
735 2 2.2208 10.8623 24.461 5.12571
736 2 2.2208 10.7956 29.9856 5.31033
737 1 -1.1104 12.1744 25.7182 0.867374
738 1 -1.1104 12.2175 25.7961 3.782
739 1 -1.1104 12.1905 23.0256 1.03073
740 1 -1.1104 12.1858 28.375 1.01037
741 2 2.2208 10.8552 27.1349 2.40272
742 1 -1.1104 12.2498 23.0492 3.82686
743 1 -1.1104 12.2446 28.6427 3.83375
744 1 -1.1104 9.40399 25.9847 0.99653
745 2 2.2208 7.94582 24.3448 2.52516
746 2 2.2208 8.06768 29.9483 2.34051
747 1 -1.1104 9.43109 25.739 3.74203
748 2 2.2208 8.05853 27.1259 5.04659
749 1 -1.1104 9.34471 23.1354 1.03453
750 1 -1.1104 9.46292 28.5769 1.07448
751 1 -1.1104 9.32047 22.8287 3.75298
752 1 -1.1104 9.43569 28.6572 3.91223
753 2 2.2208 13.7041 27.2566 5.17577
759 2 2.2208 13.5074 30.0374 2.49928
755 1 -1.1104 12.133 25.8876 6.50681
758 1 -1.1104 9.43489 25.763 6.53272
756 1 -1.1104 12.2499 23.0545 6.5728
754 1 -1.1104 12.1653 28.5605 6.62171
1023 2 2.2208 13.5179 24.412 2.32063
912 1 -1.1104 9.3882 28.4267 6.54259
757 1 -1.1104 9.51992 23.0516 6.65454
728 1 -1.1104 6.41817 47.8944 12.3985
916 1 -1.1104 12.1739 42.5528 9.33052
941 2 2.2208 10.7712 41.2537 10.7662
761 2 2.2208 5.10889 35.5118 5.16409
762 1 -1.1104 0.997841 31.207 0.987921
763 1 -1.1104 0.924582 36.9905 0.891165
764 1 -1.1104 0.802018 31.2827 3.72871
765 1 -1.1104 0.866459 36.8104 3.69228
766 1 -1.1104 0.848386 34.2046 1.0914
767 2 2.2208 5.14646 32.598 2.44293
768 2 2.2208 5.09469 38.4063 2.37949
769 1 -1.1104 1.17722 34.0745 3.78549
770 1 -1.1104 3.7167 31.3175 0.951828
771 1 -1.1104 3.78437 36.8727 1.00071
772 2 2.2208 2.3418 35.4166 2.37505
773 1 -1.1104 3.55248 31.4123 3.83495
774 1 -1.1104 3.72471 36.8187 4.02222
775 2 2.2208 2.26356 32.7116 5.14914
776 2 2.2208 2.39741 38.2461 5.14964
777 1 -1.1104 3.65404 34.0207 0.918998
778 1 -1.1104 3.83828 34.1123 3.8627
781 1 -1.1104 6.58465 31.2999 0.952773
792 1 -1.1104 6.53744 31.3353 3.79184
779 1 -1.1104 6.55182 37.0353 0.898918
783 1 -1.1104 6.47352 36.8027 3.64889
789 1 -1.1104 6.43651 33.9968 3.75932
791 1 -1.1104 6.60595 34.0531 0.986469
788 1 -1.1104 0.893649 34.0866 6.59305
784 1 -1.1104 3.71995 34.1545 6.70188
970 2 2.2208 7.93762 41.07 8.01477
787 1 -1.1104 1.0142 31.373 6.6625
782 1 -1.1104 1.04296 36.9047 6.55235
940 1 -1.1104 6.54095 34.1592 6.51733
785 1 -1.1104 6.49353 31.3499 6.53841
816 1 -1.1104 6.73282 36.7728 6.42846
994 2 2.2208 13.4862 38.472 5.12425
793 2 2.2208 10.7242 35.544 5.20697
794 1 -1.1104 12.1948 31.2006 1.17192
795 1 -1.1104 12.1355 37.0267 0.970561
796 1 -1.1104 12.2052 31.3505 4.00761
797 1 -1.1104 12.0091 37.0483 3.7965
798 1 -1.1104 12.2596 34.2106 1.09986
799 2 2.2208 10.8494 32.7808 2.42005
800 2 2.2208 10.6849 38.301 2.41389
801 1 -1.1104 12.0767 34.1263 3.84729
802 1 -1.1104 9.39042 31.3258 0.989022
803 1 -1.1104 9.2416 36.917 0.945221
804 2 2.2208 7.85268 35.5312 2.38396
805 1 -1.1104 9.27413 31.321 3.64798
806 1 -1.1104 9.23265 36.8115 3.67932
807 2 2.2208 7.93636 32.7701 5.16063
808 2 2.2208 7.83307 38.2993 5.09425
809 1 -1.1104 9.5514 34.1226 0.880696
810 1 -1.1104 9.36239 34.0273 3.67697
818 2 2.2208 13.5557 32.7716 5.27544
811 2 2.2208 13.6237 35.5682 2.53743