ITEM: TIMESTEP
315
ITEM: NUMBER OF ATOMS
17736
ITEM: BOX BOUNDS pp pp pp
-2.7717828229332220e-01 2.7617178282293317e+01
-3.4472205766305355e+00 3.3152722057663055e+02
-2.7717827830221448e-01 2.7617178278302212e+01
ITEM: ATOMS id type q x y z
1 2 2.2208 5.25442 2.13396 5.3123
2 1 -1.1104 1.06833 -2.04983 1.12804
3 1 -1.1104 1.07082 3.52677 1.12804
4 1 -1.1104 1.06835 -2.04983 3.91777
5 1 -1.1104 1.07085 3.52679 3.91773
6 1 -1.1104 1.0696 0.738469 1.12831
7 2 2.2208 5.25315 -0.654292 2.52288
8 1 -1.1104 1.06962 0.738484 3.91748
9 1 -1.1104 3.85776 -2.0498 1.12831
10 1 -1.1104 3.86029 3.52675 1.12828
11 2 2.2208 2.46495 2.13398 2.52288
12 1 -1.1104 3.8578 -2.04981 3.91746
13 1 -1.1104 3.86029 3.52675 3.91746
14 2 2.2208 2.46374 -0.654333 5.31232
15 2 2.2208 2.4662 4.92228 5.31231
16 1 -1.1104 3.85905 0.738489 1.12801
17 1 -1.1104 3.85905 0.738473 3.91774
18 2 2.2208 5.25563 4.92223 2.52288
19 1 -1.1104 6.64973 3.52669 1.12801
180 1 -1.1104 1.07087 3.52679 6.7069
28 1 -1.1104 3.86029 3.52673 6.70714
29 1 -1.1104 3.85785 -2.04983 6.70718
543 2 2.2208 5.25324 -0.654476 13.6806
20 1 -1.1104 6.64725 -2.04978 3.91772
35 1 -1.1104 6.6472 -2.04981 1.128
174 2 2.2208 10.8412 18.8636 10.8917
234 1 -1.1104 9.44568 17.4678 12.286
88 1 -1.1104 12.2352 17.4684 12.2865
209 1 -1.1104 9.44711 20.256 9.49689
21 1 -1.1104 3.85911 0.738447 6.7069
37 1 -1.1104 6.64974 3.52674 3.91771
34 1 -1.1104 6.64851 0.738484 3.91745
24 1 -1.1104 6.64851 0.738435 1.12827
38 2 2.2208 10.8333 2.13391 5.31235
39 1 -1.1104 12.2261 -2.04991 1.128
40 1 -1.1104 12.2287 3.52668 1.12813
41 1 -1.1104 12.2262 -2.04989 3.9177
42 1 -1.1104 12.2287 3.52672 3.91782
43 1 -1.1104 12.2274 0.738373 1.12832
44 2 2.2208 10.8321 -0.654385 2.52287
45 1 -1.1104 12.2274 0.738404 3.91749
46 1 -1.1104 9.43667 -2.04983 1.12826
47 1 -1.1104 9.43922 3.52672 1.12834
48 2 2.2208 8.04387 2.13394 2.52288
49 1 -1.1104 9.43672 -2.04987 3.91743
50 1 -1.1104 9.43921 3.5267 3.91752
51 2 2.2208 8.04263 -0.654333 5.3123
52 1 -1.1104 9.43795 0.738438 1.12803
53 1 -1.1104 9.43797 0.738427 3.91772
54 2 2.2208 8.04512 4.92221 5.31233
55 2 2.2208 10.8346 4.92222 2.52296
333 2 2.2208 13.6228 2.1339 2.52294
213 1 -1.1104 6.64854 0.738449 6.70717
208 1 -1.1104 9.43675 -2.04985 6.70715
205 1 -1.1104 9.43799 0.738432 6.70691
57 1 -1.1104 12.2274 0.738408 6.70719
322 2 2.2208 13.624 4.92222 5.31241
330 2 2.2208 13.6215 -0.654408 5.31232
22 2 2.2208 13.6306 18.8642 8.10238
204 1 -1.1104 12.2287 3.52672 6.70696
58 1 -1.1104 9.43923 3.52671 6.70719
207 1 -1.1104 12.2262 -2.04991 6.7069
337 2 2.2208 13.6292 16.0757 10.8915
64 2 2.2208 5.25687 7.71049 5.3123
65 2 2.2208 5.25929 13.287 5.31245
66 1 -1.1104 1.0732 9.10339 1.12806
67 1 -1.1104 1.07324 9.10343 3.91773
68 1 -1.1104 1.07204 6.31508 1.12828
69 1 -1.1104 1.07443 11.8917 1.12835
70 2 2.2208 5.25806 10.4987 2.52295
71 1 -1.1104 1.07204 6.31511 3.91747
72 1 -1.1104 1.0744 11.8918 3.91756
73 1 -1.1104 3.86271 9.10328 1.12831
74 2 2.2208 2.46738 7.71059 2.52289
75 2 2.2208 2.46976 13.2871 2.52302
76 1 -1.1104 3.86272 9.1033 3.91747
77 2 2.2208 2.46857 10.4989 5.31234
78 1 -1.1104 3.86148 6.31502 1.12804
79 1 -1.1104 3.86386 11.8915 1.12814
80 1 -1.1104 3.86151 6.31504 3.91772
81 1 -1.1104 3.86391 11.8916 3.91779
85 1 -1.1104 6.65097 6.31496 1.12832
84 1 -1.1104 6.65342 11.8914 1.12841
93 1 -1.1104 6.65099 6.31496 3.91746
94 1 -1.1104 6.65218 9.10317 1.12808
95 1 -1.1104 6.65342 11.8914 3.91758
83 1 -1.1104 3.86391 11.8915 6.70695
82 1 -1.1104 1.07207 6.3151 6.70715
240 1 -1.1104 3.86272 9.10327 6.70713
542 2 2.2208 8.05159 18.8629 13.681
270 1 -1.1104 6.65346 11.8914 6.70723
86 1 -1.1104 1.07443 11.8917 6.7072
238 1 -1.1104 1.07324 9.10341 6.70692
91 1 -1.1104 6.65224 9.10323 3.91777
293 1 -1.1104 12.2367 20.2568 9.49744
96 2 2.2208 10.8359 7.71051 5.31241
97 2 2.2208 10.8384 13.2871 5.31256
98 1 -1.1104 12.2312 9.10322 1.12816
99 1 -1.1104 12.2312 9.10334 3.91789
100 1 -1.1104 12.2299 6.31496 1.12845
101 1 -1.1104 12.2325 11.8915 1.12854
102 2 2.2208 10.8371 10.4987 2.52302
103 1 -1.1104 12.2299 6.315 3.91758
104 1 -1.1104 12.2324 11.8916 3.91765
105 1 -1.1104 9.44172 9.10315 1.1284
106 2 2.2208 8.04635 7.71047 2.52295
107 2 2.2208 8.04883 13.2869 2.5231
108 1 -1.1104 9.44172 9.1032 3.91755
109 2 2.2208 8.04761 10.4987 5.31239
110 1 -1.1104 9.44044 6.31494 1.1281
111 1 -1.1104 9.44292 11.8913 1.12818
112 1 -1.1104 9.44048 6.31498 3.91781
113 1 -1.1104 9.44299 11.8915 3.91791
328 2 2.2208 13.6278 13.2872 2.52319
326 2 2.2208 13.6253 7.71054 2.52305
327 2 2.2208 13.6266 10.499 5.31249
27 1 -1.1104 12.2352 17.4684 9.49673
117 1 -1.1104 12.2325 11.8917 6.70738
264 1 -1.1104 12.23 6.31502 6.70727
292 1 -1.1104 9.44432 14.6796 12.2863
145 2 2.2208 10.8427 21.6519 8.10258
297 2 2.2208 8.05307 21.6512 10.8918
121 2 2.2208 5.26191 18.8633 5.31282
122 1 -1.1104 1.0756 14.6801 1.12828
123 1 -1.1104 1.07823 20.2569 1.12879
124 1 -1.1104 1.07565 14.6801 3.91789
125 1 -1.1104 1.0783 20.2569 3.9183
126 1 -1.1104 1.07697 17.4684 1.1287
127 2 2.2208 5.26056 16.0751 2.52322
128 2 2.2208 5.26336 21.6515 2.52375
129 1 -1.1104 1.07688 17.4685 3.9179
130 1 -1.1104 3.86515 14.6797 1.1285
131 1 -1.1104 3.86784 20.2562 1.12897
132 2 2.2208 2.47238 18.8637 2.52344
133 1 -1.1104 3.86509 14.6798 3.91768
134 1 -1.1104 3.86774 20.2562 3.91811
135 2 2.2208 2.47102 16.0755 5.31259
136 2 2.2208 2.47376 21.6521 5.31301
137 1 -1.1104 3.86637 17.4679 1.12849
138 1 -1.1104 3.86645 17.468 3.91809
151 1 -1.1104 6.65736 20.2557 1.12879
142 1 -1.1104 6.6547 14.6796 3.91797
139 1 -1.1104 6.65603 17.4676 1.12877
149 1 -1.1104 6.65598 17.4677 3.9179
141 1 -1.1104 1.07561 14.6801 6.70711
143 1 -1.1104 6.65462 14.6795 1.12829
150 1 -1.1104 6.65743 20.2558 3.91842
140 1 -1.1104 1.07821 20.2568 6.70749
298 1 -1.1104 1.07688 17.4684 6.70745
147 1 -1.1104 3.86513 14.6798 6.70733
176 1 -1.1104 12.2367 20.257 12.2862
323 2 2.2208 13.6292 16.0757 5.31277
36 2 2.2208 13.6322 21.6525 5.3133
23 2 2.2208 13.6306 18.8638 2.5236
153 2 2.2208 10.8411 18.8636 5.31297
154 1 -1.1104 12.2337 14.6797 1.12837
155 1 -1.1104 12.2366 20.256 1.12879
156 1 -1.1104 12.2338 14.6799 3.91816
157 1 -1.1104 12.2368 20.2564 3.91866
158 1 -1.1104 12.2352 17.4679 1.12893
159 2 2.2208 10.8397 16.0752 2.52334
160 2 2.2208 10.8427 21.6515 2.52392
161 1 -1.1104 12.2351 17.4681 3.91797
162 1 -1.1104 9.44427 14.6795 1.12866
163 1 -1.1104 9.44714 20.2557 1.12916
164 2 2.2208 8.05154 18.8631 2.52352
165 1 -1.1104 9.44423 14.6797 3.91775
166 1 -1.1104 9.44703 20.2558 3.91818
167 2 2.2208 8.05015 16.0751 5.31268
168 2 2.2208 8.05301 21.6513 5.31315
169 1 -1.1104 9.44553 17.4676 1.12852
170 1 -1.1104 9.44566 17.4678 3.91831
171 1 -1.1104 9.4456 17.4679 6.70735
152 1 -1.1104 9.44712 20.2559 6.70798
261 1 -1.1104 12.2352 17.4683 6.7078
60 1 -1.1104 12.2338 14.68 6.7072
575 2 2.2208 10.8346 4.92208 13.6806
206 1 -1.1104 6.64978 3.5267 6.70688
678 2 2.2208 13.6279 13.2872 13.6808
30 1 -1.1104 1.06965 0.738462 6.70718
31 1 -1.1104 1.06841 -2.04987 6.70692
181 2 2.2208 5.25446 2.13384 10.8912
182 1 -1.1104 1.06843 -2.05002 12.2858
183 1 -1.1104 1.0709 3.5266 12.2857
184 1 -1.1104 1.06841 -2.04996 9.49664
185 1 -1.1104 1.07086 3.52668 9.49658
186 1 -1.1104 1.06966 0.738291 12.286
187 2 2.2208 5.25322 -0.654376 8.10175
188 1 -1.1104 1.06968 0.738336 9.49632
189 1 -1.1104 3.85787 -2.04997 12.2861
190 1 -1.1104 3.86033 3.5266 12.286
191 2 2.2208 2.46499 2.13391 8.10174
192 1 -1.1104 3.85789 -2.0499 9.49635
193 1 -1.1104 3.86031 3.52664 9.49631
194 2 2.2208 2.46377 -0.654466 10.8912
195 2 2.2208 2.46621 4.92215 10.8911
196 1 -1.1104 3.85911 0.738325 12.2858
197 1 -1.1104 3.8591 0.738379 9.49663
198 2 2.2208 5.25566 4.92218 8.10172
211 1 -1.1104 6.64979 3.52659 12.2857
210 1 -1.1104 6.64857 0.738351 9.49633
212 1 -1.1104 6.64737 -2.04993 12.2858
215 1 -1.1104 6.64977 3.52665 9.49658
518 2 2.2208 5.25565 4.92206 13.6806
670 2 2.2208 2.465 2.13381 13.6806
56 1 -1.1104 6.64731 -2.04982 6.70688
32 2 2.2208 13.6321 21.6529 10.8919
92 1 -1.1104 12.2338 14.68 9.49693
214 1 -1.1104 6.64858 0.738337 12.286
199 1 -1.1104 6.64733 -2.0499 9.49658
331 2 2.2208 13.6228 2.13388 8.10179
324 2 2.2208 13.6216 -0.654459 10.8912
332 2 2.2208 13.6241 4.92217 10.8913
216 2 2.2208 10.8334 2.13385 10.8912
217 1 -1.1104 12.2263 -2.04998 12.2858
218 1 -1.1104 12.2287 3.52661 12.2858
219 1 -1.1104 12.2262 -2.04994 9.4966
220 1 -1.1104 12.2287 3.52666 9.49666
221 1 -1.1104 12.2275 0.738319 12.2861
222 2 2.2208 10.8321 -0.654405 8.10176
223 1 -1.1104 12.2275 0.738343 9.49636
224 1 -1.1104 9.43682 -2.04996 12.286
225 1 -1.1104 9.43923 3.5266 12.2861
226 2 2.2208 8.0439 2.1339 8.10175
227 1 -1.1104 9.4368 -2.0499 9.49634
228 1 -1.1104 9.43925 3.52669 9.49635
229 2 2.2208 8.0427 -0.654432 10.8912
230 2 2.2208 8.04512 4.92212 10.8912
231 1 -1.1104 9.43804 0.738328 12.2858
232 1 -1.1104 9.43802 0.738394 9.49661
233 2 2.2208 10.8346 4.92219 8.10179
262 1 -1.1104 9.44568 17.4679 9.49709
685 2 2.2208 13.6228 2.13382 13.6807
114 1 -1.1104 6.651 6.31496 6.70714
268 1 -1.1104 6.65223 9.10318 6.70689
239 1 -1.1104 3.86154 6.31501 6.70687
241 2 2.2208 5.25687 7.71039 10.8911
242 2 2.2208 5.25934 13.2868 10.8913
243 1 -1.1104 1.07326 9.10326 12.2857
244 1 -1.1104 1.07324 9.10334 9.49655
245 1 -1.1104 1.07206 6.31492 12.286
246 1 -1.1104 1.07445 11.8916 12.286
247 2 2.2208 5.25809 10.4987 8.10175
248 1 -1.1104 1.07208 6.31502 9.49632
249 1 -1.1104 1.07445 11.8917 9.49638
250 1 -1.1104 3.86271 9.10311 12.286
251 2 2.2208 2.4674 7.71052 8.10172
252 2 2.2208 2.4698 13.2871 8.10186
253 1 -1.1104 3.86272 9.10319 9.49629
254 2 2.2208 2.4686 10.4988 10.8911
255 1 -1.1104 3.86153 6.31487 12.2857
256 1 -1.1104 3.86395 11.8913 12.2858
257 1 -1.1104 3.86153 6.31492 9.49654
258 1 -1.1104 3.86394 11.8915 9.49659
272 1 -1.1104 6.65101 6.31492 9.4963
269 1 -1.1104 6.65348 11.8912 12.286
273 1 -1.1104 6.65099 6.31483 12.286
271 1 -1.1104 6.65223 9.10303 12.2857
260 1 -1.1104 6.65347 11.8913 9.49635
259 1 -1.1104 6.65221 9.10316 9.49656
597 2 2.2208 5.25809 10.4985 13.6806
265 1 -1.1104 9.44049 6.31497 6.70694
115 1 -1.1104 12.2312 9.10333 6.70701
267 1 -1.1104 9.44175 9.10327 6.70724
427 2 2.2208 10.8371 10.4986 13.6806
334 2 2.2208 13.6279 13.2873 8.10197
335 2 2.2208 13.6253 7.71058 8.10184
266 1 -1.1104 9.44298 11.8915 6.70701
321 2 2.2208 13.6266 10.4989 10.8913
274 1 -1.1104 9.44301 11.8915 9.49669
275 1 -1.1104 9.44049 6.31496 9.49663
276 1 -1.1104 9.44305 11.8913 12.2858
277 1 -1.1104 9.44049 6.31485 12.2857
278 2 2.2208 8.04761 10.4986 10.8912
279 1 -1.1104 9.44175 9.10321 9.49634
280 2 2.2208 8.04886 13.2869 8.10189
281 2 2.2208 8.04636 7.71047 8.10174
282 2 2.2208 10.8359 7.71045 10.8912
283 2 2.2208 10.8384 13.287 10.8913
284 1 -1.1104 12.2312 9.10324 12.2858
285 1 -1.1104 12.2312 9.10331 9.49669
286 1 -1.1104 12.2299 6.31493 12.2861
287 1 -1.1104 12.2325 11.8916 12.2861
288 2 2.2208 10.8371 10.4988 8.10185
289 1 -1.1104 12.23 6.31498 9.49639
290 1 -1.1104 12.2325 11.8916 9.49643
291 1 -1.1104 9.44173 9.1031 12.286
431 2 2.2208 8.0489 13.2867 13.6807
172 1 -1.1104 6.65739 20.2557 6.70751
148 1 -1.1104 3.86776 20.2561 6.70767
295 1 -1.1104 6.65467 14.6796 6.70711
173 1 -1.1104 6.65604 17.4678 6.70757
402 2 2.2208 2.47233 18.8632 13.681
33 1 -1.1104 6.65605 17.4676 9.49667
294 1 -1.1104 6.65475 14.6794 12.2859
146 1 -1.1104 3.86641 17.4679 6.70726
300 1 -1.1104 1.07687 17.4681 12.2863
301 2 2.2208 2.47104 16.0753 10.8914
302 2 2.2208 2.4737 21.6516 10.8917
303 1 -1.1104 3.86642 17.4676 12.2861
304 1 -1.1104 3.86777 20.2556 12.2865
305 1 -1.1104 3.86517 14.6795 12.2862
306 1 -1.1104 1.07819 20.2566 9.49701
307 1 -1.1104 1.0769 17.4683 9.49665
308 2 2.2208 5.26336 21.6513 8.10241
309 1 -1.1104 1.07566 14.68 9.49672
310 2 2.2208 5.26059 16.0751 8.10201
311 1 -1.1104 1.07819 20.2563 12.2863
312 1 -1.1104 1.07564 14.6799 12.2859
313 2 2.2208 5.26194 18.8631 10.8916
314 1 -1.1104 3.86777 20.2559 9.49686
315 2 2.2208 2.47236 18.8637 8.10214
316 1 -1.1104 3.86644 17.4678 9.49687
317 1 -1.1104 3.86518 14.6796 9.49651
299 1 -1.1104 6.65745 20.2556 9.49721
120 1 -1.1104 6.65475 14.6795 9.4968
90 1 -1.1104 6.65606 17.4674 12.2864
318 1 -1.1104 6.65748 20.2554 12.2863
426 2 2.2208 5.26061 16.0748 13.6808
116 2 2.2208 8.05019 16.075 10.8915
296 1 -1.1104 12.2338 14.6799 12.2859
235 1 -1.1104 12.2366 20.2566 6.70758
203 1 -1.1104 9.44428 14.6797 6.70747
61 2 2.2208 10.8397 16.0754 8.10212
372 2 2.2208 13.6306 18.8641 13.681
263 2 2.2208 8.05155 18.8632 8.10227
519 2 2.2208 10.8397 16.0751 13.6809
202 1 -1.1104 9.44717 20.2559 12.2867
118 1 -1.1104 9.4443 14.6796 9.49652
632 2 2.2208 10.8427 21.6517 13.6812
514 2 2.2208 8.04391 2.13381 13.6806
370 2 2.2208 10.8321 -0.654482 13.6806
485 2 2.2208 2.46982 13.2869 13.6807
545 2 2.2208 2.46738 7.71037 13.6806
677 2 2.2208 13.6253 7.71046 13.6807
432 2 2.2208 8.04636 7.7103 13.6806
631 2 2.2208 5.26335 21.6507 13.6812
348 2 2.2208 10.8309 -3.44273 10.8912
690 2 2.2208 8.04145 -3.44274 13.6806
688 2 2.2208 2.46249 -3.44279 13.6806
339 2 2.2208 5.25198 -3.44271 10.8912
345 2 2.2208 2.46243 -3.4426 2.52291
343 2 2.2208 10.8308 -3.44267 5.31227
346 2 2.2208 8.04135 -3.44259 2.52285
340 2 2.2208 2.4625 -3.44267 8.10176
344 2 2.2208 5.25191 -3.44258 5.3123
349 2 2.2208 8.04143 -3.44263 8.10173
341 2 2.2208 13.6203 -3.44274 8.10172
693 2 2.2208 13.6204 -3.4428 13.6806
350 2 2.2208 13.6202 -3.44273 2.52284
351 2 2.2208 5.25443 2.13378 16.4701
352 1 -1.1104 1.06836 -2.05005 17.8647
353 1 -1.1104 1.07087 3.52655 17.8646
354 1 -1.1104 1.06838 -2.05005 15.0755
355 1 -1.1104 1.07086 3.52656 15.0754
356 1 -1.1104 1.06963 0.738232 17.8649
357 2 2.2208 5.25318 -0.654482 19.2595
358 1 -1.1104 1.06965 0.738259 15.0752
359 1 -1.1104 3.85782 -2.04999 17.8649
360 1 -1.1104 3.86029 3.52651 17.8649
361 2 2.2208 2.46494 2.13376 19.2595
362 1 -1.1104 3.85785 -2.04998 15.0752
363 1 -1.1104 3.86031 3.52653 15.0752
364 2 2.2208 2.46374 -0.654516 16.47
365 1 -1.1104 3.85907 0.738265 17.8646
366 1 -1.1104 3.85909 0.738286 15.0755
367 2 2.2208 2.46619 4.92203 16.47
368 2 2.2208 5.25562 4.92204 19.2595
369 1 -1.1104 6.64976 3.52656 15.0755
381 1 -1.1104 6.64853 0.738258 17.8649
377 1 -1.1104 6.64976 3.52654 17.8646
378 1 -1.1104 6.64857 0.738303 15.0752
144 2 2.2208 8.05011 16.0749 27.6282
329 2 2.2208 13.6215 -0.654419 27.6278
523 1 -1.1104 3.85905 0.738288 20.6543
520 1 -1.1104 1.07081 3.52654 20.6543
371 1 -1.1104 3.8578 -2.04997 20.6541
374 1 -1.1104 1.06833 -2.05 20.6544
373 1 -1.1104 1.06958 0.738278 20.6541
522 1 -1.1104 3.86026 3.52655 20.654
521 1 -1.1104 6.64728 -2.04996 20.6543
672 2 2.2208 13.6292 16.075 22.0493
659 2 2.2208 8.05009 16.0745 22.0493
380 1 -1.1104 6.64732 -2.04997 15.0755
382 1 -1.1104 6.64728 -2.04999 17.8647
383 2 2.2208 10.8334 2.1338 16.4701
384 1 -1.1104 12.2262 -2.05001 17.8647
385 1 -1.1104 12.2287 3.52657 17.8647
386 1 -1.1104 12.2262 -2.05003 15.0755
387 1 -1.1104 12.2287 3.52657 15.0755
388 1 -1.1104 12.2275 0.73829 17.8649
389 2 2.2208 10.8321 -0.654455 19.2595
390 2 2.2208 10.8346 4.92206 19.2595
391 1 -1.1104 12.2275 0.73826 15.0752
392 1 -1.1104 9.43676 -2.04998 17.8649
393 1 -1.1104 9.43923 3.52652 17.8649
394 2 2.2208 8.04387 2.1338 19.2595
395 1 -1.1104 9.43679 -2.04999 15.0752
396 1 -1.1104 9.43925 3.52657 15.0752
397 2 2.2208 8.04266 -0.654483 16.4701
398 2 2.2208 8.04512 4.92204 16.47
399 1 -1.1104 9.43799 0.738292 17.8647
400 1 -1.1104 9.43802 0.738296 15.0755
674 2 2.2208 13.6216 -0.654506 16.4701
671 2 2.2208 13.6228 2.13382 19.2596
547 1 -1.1104 9.43674 -2.04995 20.6541
405 1 -1.1104 12.2287 3.52658 20.6544
552 1 -1.1104 12.2274 0.738309 20.6541
403 1 -1.1104 12.2262 -2.04999 20.6543
401 1 -1.1104 9.43797 0.738328 20.6544
673 2 2.2208 13.624 4.92211 16.4701
200 2 2.2208 13.6322 21.6517 27.6289
578 2 2.2208 10.8426 21.6507 24.8393
666 2 2.2208 10.8411 18.8626 22.0495
407 2 2.2208 5.25685 7.71025 16.47
408 2 2.2208 5.25932 13.2866 16.4701
409 1 -1.1104 1.07324 9.10311 17.8646
410 1 -1.1104 1.07324 9.10317 15.0754
411 1 -1.1104 1.07206 6.31484 17.8648
412 1 -1.1104 1.07443 11.8914 17.8649
413 2 2.2208 5.25806 10.4984 19.2595
414 1 -1.1104 1.07207 6.31487 15.0752
415 1 -1.1104 1.07445 11.8915 15.0753
416 1 -1.1104 3.86272 9.10298 17.8648
417 2 2.2208 2.46738 7.71031 19.2595
418 2 2.2208 2.46977 13.2868 19.2596
419 1 -1.1104 3.86271 9.10299 15.0751
420 2 2.2208 2.46859 10.4986 16.47
421 1 -1.1104 3.86152 6.31477 17.8646
422 1 -1.1104 3.86389 11.8912 17.8647
423 1 -1.1104 3.86149 6.31476 15.0754
424 1 -1.1104 3.86394 11.8912 15.0755
438 1 -1.1104 6.65345 11.891 17.8649
437 1 -1.1104 6.6522 9.10292 17.8646
433 1 -1.1104 3.86268 9.10302 20.6541
430 1 -1.1104 6.65223 9.10297 15.0754
439 1 -1.1104 6.65347 11.8911 15.0752
428 1 -1.1104 3.86389 11.8912 20.6544
576 1 -1.1104 3.8615 6.3148 20.6543
379 2 2.2208 13.6306 18.8632 24.839
425 1 -1.1104 6.65099 6.31477 15.0751
429 1 -1.1104 1.07325 9.10313 20.6543
25 2 2.2208 10.8411 18.8631 27.6285
669 1 -1.1104 9.44694 20.2553 26.2337
681 2 2.2208 13.6278 13.2869 19.2596
440 1 -1.1104 6.65098 6.31477 17.8649
441 2 2.2208 10.8358 7.71031 16.4701
442 2 2.2208 10.8384 13.2867 16.4702
443 1 -1.1104 12.2312 9.10308 17.8646
444 1 -1.1104 12.2312 9.10317 15.0755
445 1 -1.1104 12.2299 6.31485 17.865
446 1 -1.1104 12.2325 11.8913 17.865
447 2 2.2208 10.8371 10.4985 19.2595
448 1 -1.1104 12.23 6.31487 15.0752
449 1 -1.1104 12.2325 11.8915 15.0752
450 1 -1.1104 9.44172 9.10293 17.8649
451 2 2.2208 8.04632 7.71025 19.2595
452 2 2.2208 8.04884 13.2865 19.2596
453 1 -1.1104 9.44175 9.10302 15.0752
454 2 2.2208 8.04759 10.4984 16.47
455 1 -1.1104 9.44048 6.31473 17.8646
456 1 -1.1104 9.44299 11.8911 17.8647
457 1 -1.1104 9.44048 6.31481 15.0755
458 1 -1.1104 9.44303 11.8912 15.0755
683 2 2.2208 13.6253 7.71039 19.2596
682 2 2.2208 13.6266 10.4987 16.4701
657 1 -1.1104 6.65598 17.4672 23.4442
635 1 -1.1104 6.65469 14.6793 26.2335
609 1 -1.1104 9.44169 9.10295 20.6541
553 1 -1.1104 12.2367 20.2556 26.2341
660 1 -1.1104 6.65746 20.2555 26.234
465 2 2.2208 5.26194 18.8626 16.4705
466 1 -1.1104 1.07561 14.6796 17.8648
467 1 -1.1104 1.07814 20.2559 17.8653
468 1 -1.1104 1.07565 14.6797 15.0756
469 1 -1.1104 1.07817 20.2561 15.0759
470 1 -1.1104 1.0769 17.4678 17.8652
471 2 2.2208 5.26057 16.0746 19.2598
472 2 2.2208 5.26329 21.6503 19.2603
473 1 -1.1104 1.07691 17.4679 15.0755
474 1 -1.1104 3.86514 14.6793 17.865
475 1 -1.1104 3.86778 20.2552 17.8655
476 2 2.2208 2.47233 18.863 19.26
477 1 -1.1104 3.86517 14.6794 15.0754
478 1 -1.1104 3.86777 20.2554 15.0758
479 2 2.2208 2.47104 16.075 16.4703
480 2 2.2208 2.47365 21.651 16.4707
481 1 -1.1104 3.86641 17.4673 17.865
482 1 -1.1104 3.86645 17.4674 15.0758
492 1 -1.1104 6.65475 14.6792 15.0756
486 1 -1.1104 6.65741 20.2549 17.8652
488 1 -1.1104 6.65747 20.2551 15.076
483 1 -1.1104 6.65604 17.467 17.8653
636 1 -1.1104 1.07825 20.256 20.655
493 1 -1.1104 6.65607 17.4672 15.0755
515 1 -1.1104 6.65469 14.6791 20.6546
489 1 -1.1104 1.07566 14.6796 20.6545
464 1 -1.1104 6.65595 17.467 20.6545
490 1 -1.1104 1.07686 17.4679 20.6545
487 1 -1.1104 6.6547 14.6791 17.8648
406 2 2.2208 13.6306 18.8633 19.2599
686 2 2.2208 13.6292 16.0753 16.4703
494 2 2.2208 10.8411 18.8631 16.4704
495 1 -1.1104 12.2338 14.6795 17.8648
496 1 -1.1104 12.2367 20.2559 17.865
497 1 -1.1104 12.2338 14.6798 15.0757
498 1 -1.1104 12.2367 20.2565 15.076
499 1 -1.1104 12.2352 17.4677 17.8653
500 2 2.2208 10.8397 16.0747 19.2598
501 2 2.2208 10.8426 21.6507 19.2601
502 1 -1.1104 12.2352 17.4681 15.0754
503 1 -1.1104 9.44429 14.6792 17.8651
504 1 -1.1104 9.44709 20.2551 17.8655
505 2 2.2208 8.05152 18.8624 19.26
506 1 -1.1104 9.44431 14.6794 15.0753
507 1 -1.1104 9.44717 20.2555 15.0756
508 2 2.2208 8.05019 16.0746 16.4703
509 2 2.2208 8.05304 21.6505 16.4707
510 1 -1.1104 9.44565 17.4672 17.8649
511 1 -1.1104 9.44565 17.4675 15.0758
513 1 -1.1104 12.2351 17.4674 20.6544
376 2 2.2208 13.6321 21.6522 16.4706
491 1 -1.1104 9.4456 17.467 20.6548
512 1 -1.1104 9.44421 14.6791 20.6543
517 1 -1.1104 12.2338 14.6794 20.6546
665 1 -1.1104 12.2366 20.2554 20.655
664 1 -1.1104 12.2366 20.2554 23.4441
602 2 2.2208 8.05146 18.8627 24.839
667 1 -1.1104 9.44419 14.6794 26.2333
633 1 -1.1104 9.4456 17.4674 26.2338
375 1 -1.1104 6.64851 0.7383 20.654
551 1 -1.1104 6.64973 3.52656 20.6543
524 2 2.2208 5.25439 2.1338 22.0489
525 1 -1.1104 1.06831 -2.04994 23.4435
526 1 -1.1104 1.0708 3.52664 23.4435
527 1 -1.1104 1.06832 -2.04987 26.2332
528 1 -1.1104 1.07083 3.52673 26.2332
529 1 -1.1104 1.06959 0.738347 23.4438
530 2 2.2208 5.25314 -0.654392 24.8383
531 1 -1.1104 1.06957 0.738438 26.233
532 1 -1.1104 3.8578 -2.04993 23.4438
533 1 -1.1104 3.86028 3.5266 23.4437
534 2 2.2208 2.46494 2.13388 24.8383
535 1 -1.1104 3.85775 -2.04985 26.2329
536 1 -1.1104 3.86027 3.52669 26.2329
537 2 2.2208 2.4637 -0.654449 22.0489
538 1 -1.1104 3.85904 0.738357 23.4435
539 1 -1.1104 3.85904 0.738426 26.2332
540 2 2.2208 5.25561 4.92213 24.8383
541 2 2.2208 2.46616 4.92209 22.0489
550 1 -1.1104 6.64973 3.52659 23.4435
555 1 -1.1104 6.64849 0.738408 26.2329
554 1 -1.1104 6.64974 3.52667 26.2332
577 1 -1.1104 9.44423 14.6792 23.4441
549 1 -1.1104 6.64852 0.73833 23.4438
59 2 2.2208 2.4637 -0.654317 27.6278
62 2 2.2208 10.8333 2.13391 27.6278
201 2 2.2208 5.25439 2.13393 27.6278
404 1 -1.1104 9.4392 3.52655 20.6541
680 2 2.2208 13.624 4.92211 22.049
548 1 -1.1104 6.64726 -2.04993 23.4435
687 2 2.2208 13.6215 -0.654485 22.049
679 2 2.2208 13.6227 2.13387 24.8384
556 1 -1.1104 6.64721 -2.04986 26.2332
557 2 2.2208 10.8333 2.13384 22.049
558 1 -1.1104 12.2261 -2.04997 23.4435
559 1 -1.1104 12.2287 3.5266 23.4436
560 1 -1.1104 12.2261 -2.04993 26.2332
561 1 -1.1104 12.2287 3.52666 26.2333
562 1 -1.1104 12.2274 0.738334 23.4438
563 2 2.2208 10.832 -0.654435 24.8383
564 1 -1.1104 12.2274 0.738355 26.233
565 1 -1.1104 9.4367 -2.04992 23.4438
566 1 -1.1104 9.4392 3.52659 23.4438
567 2 2.2208 8.04385 2.13388 24.8384
568 1 -1.1104 9.43667 -2.04988 26.2329
569 1 -1.1104 9.43919 3.52664 26.233
570 2 2.2208 8.04263 -0.654435 22.0489
571 1 -1.1104 9.43796 0.738333 23.4435
572 1 -1.1104 9.43796 0.738383 26.2332
573 2 2.2208 10.8346 4.92211 24.8385
574 2 2.2208 8.04508 4.92205 22.0489
630 1 -1.1104 12.2337 14.6793 23.4437
63 2 2.2208 8.04258 -0.654358 27.6278
325 2 2.2208 13.624 4.92219 27.6279
434 1 -1.1104 1.07439 11.8914 20.6542
606 1 -1.1104 6.65221 9.10294 20.6543
435 1 -1.1104 1.07204 6.31484 20.6541
579 2 2.2208 5.25683 7.71032 22.0489
580 2 2.2208 5.25927 13.2866 22.0491
581 1 -1.1104 1.07318 9.10321 23.4435
582 1 -1.1104 1.07321 9.10328 26.2332
583 1 -1.1104 1.07203 6.31492 23.4437
584 1 -1.1104 1.07442 11.8915 23.4439
585 2 2.2208 5.25802 10.4985 24.8384
586 1 -1.1104 1.07201 6.31501 26.2329
587 1 -1.1104 1.07438 11.8916 26.2331
588 1 -1.1104 3.86268 9.10308 23.4438
589 2 2.2208 2.46735 7.71042 24.8384
590 2 2.2208 2.46976 13.2869 24.8385
591 1 -1.1104 3.86265 9.10315 26.233
592 2 2.2208 2.46854 10.4986 22.049
593 1 -1.1104 3.86147 6.31485 23.4435
594 1 -1.1104 3.86384 11.8913 23.4436
595 1 -1.1104 3.8615 6.31493 26.2332
596 1 -1.1104 3.86389 11.8914 26.2333
600 1 -1.1104 6.6534 11.8911 23.4439
604 1 -1.1104 6.65094 6.31482 23.4438
599 1 -1.1104 6.65337 11.8912 26.2331
598 1 -1.1104 6.65216 9.10302 23.4435
603 1 -1.1104 6.65218 9.10309 26.2333
605 1 -1.1104 6.6534 11.891 20.6542
663 1 -1.1104 12.2352 17.4674 23.4443
236 2 2.2208 2.46855 10.4988 27.6279
178 2 2.2208 5.25683 7.71044 27.6278
460 1 -1.1104 6.65095 6.31475 20.654
459 1 -1.1104 9.44297 11.8911 20.6544
462 1 -1.1104 12.2299 6.31484 20.6541
608 1 -1.1104 12.2312 9.10303 20.6544
607 1 -1.1104 6.65093 6.31488 26.233
676 2 2.2208 13.6253 7.71041 24.8385
684 2 2.2208 13.6278 13.2869 24.8386
675 2 2.2208 13.6265 10.4986 22.0491
461 1 -1.1104 12.2324 11.8912 20.6542
463 1 -1.1104 9.44044 6.31477 20.6544
610 1 -1.1104 9.44169 9.103 23.4439
611 1 -1.1104 12.2324 11.8914 26.2331
612 1 -1.1104 12.2299 6.3149 26.2331
613 2 2.2208 10.8371 10.4985 24.8385
614 1 -1.1104 12.2324 11.8912 23.444
615 1 -1.1104 12.2299 6.31485 23.4439
616 1 -1.1104 12.2312 9.10314 26.2334
617 1 -1.1104 12.2312 9.10304 23.4436
618 1 -1.1104 9.44297 11.8913 26.2334
619 1 -1.1104 9.44043 6.31489 26.2333
620 1 -1.1104 9.4429 11.8911 23.4436
621 1 -1.1104 9.44041 6.31479 23.4435
622 2 2.2208 8.04756 10.4984 22.049
623 1 -1.1104 9.44166 9.10307 26.233
624 2 2.2208 8.04879 13.2866 24.8386
625 2 2.2208 8.04629 7.71032 24.8384
626 2 2.2208 10.8358 7.71029 22.049
627 2 2.2208 10.8383 13.2866 22.0491
338 2 2.2208 13.6265 10.4988 27.628
638 1 -1.1104 3.86642 17.4673 20.6547
484 1 -1.1104 3.86768 20.2553 20.6548
637 1 -1.1104 3.86509 14.6793 20.6543
629 1 -1.1104 6.65727 20.2551 23.4443
656 2 2.2208 2.47102 16.075 22.0493
639 2 2.2208 2.47373 21.6512 22.0499
640 1 -1.1104 3.86632 17.4675 23.444
641 1 -1.1104 1.07694 17.468 23.4442
642 1 -1.1104 3.86508 14.6796 26.2332
643 1 -1.1104 3.86647 17.4678 26.2337
644 2 2.2208 2.47237 18.8634 24.839
645 1 -1.1104 3.86772 20.2559 26.2338
646 2 2.2208 5.26187 18.8626 22.0495
647 1 -1.1104 1.07561 14.6798 23.4438
648 1 -1.1104 1.0782 20.2563 23.4443
649 2 2.2208 5.26052 16.0748 24.8387
650 2 2.2208 5.26333 21.6509 24.8394
651 1 -1.1104 1.07569 14.6799 26.2335
652 1 -1.1104 1.07688 17.4682 26.2335
653 1 -1.1104 1.07838 20.2566 26.234
654 1 -1.1104 3.86514 14.6794 23.444
655 1 -1.1104 3.86781 20.2556 23.4445
662 1 -1.1104 6.65591 17.4674 26.2335
634 1 -1.1104 6.6546 14.6792 23.4438
26 2 2.2208 2.47381 21.6519 27.6288
320 2 2.2208 5.26191 18.8631 27.6284
336 2 2.2208 13.6292 16.0753 27.6283
546 2 2.2208 8.05295 21.6502 22.0498
668 2 2.2208 10.8397 16.0748 24.8388
658 1 -1.1104 6.6574 20.2548 20.655
516 1 -1.1104 9.44702 20.2549 20.6547
544 1 -1.1104 9.44549 17.4671 23.444
661 1 -1.1104 9.44705 20.255 23.4446
601 1 -1.1104 12.2351 17.4676 26.2334
436 2 2.2208 13.6321 21.6511 22.0497
628 1 -1.1104 12.2338 14.6795 26.2336
237 2 2.2208 2.46617 4.92224 27.6278
179 2 2.2208 8.04507 4.92218 27.6278
119 2 2.2208 10.8383 13.2868 27.6281
175 2 2.2208 8.04756 10.4986 27.6279
89 2 2.2208 10.8358 7.71041 27.6279
87 2 2.2208 2.47105 16.0753 27.6282
319 2 2.2208 8.053 21.651 27.6288
177 2 2.2208 5.25926 13.2868 27.628
698 2 2.2208 10.8308 -3.44274 22.0489
347 2 2.2208 10.8308 -3.44268 27.6278
342 2 2.2208 5.25186 -3.44261 27.6278
689 2 2.2208 5.25195 -3.44276 16.4701
697 2 2.2208 2.46241 -3.44268 24.8384
700 2 2.2208 13.6203 -3.4428 19.2595
691 2 2.2208 10.8309 -3.44277 16.47
694 2 2.2208 8.0414 -3.44274 19.2595
695 2 2.2208 2.46245 -3.44276 19.2595
696 2 2.2208 5.25192 -3.44272 22.0489
692 2 2.2208 13.6202 -3.44277 24.8383
699 2 2.2208 8.04133 -3.44267 24.8383
701 2 2.2208 5.26488 24.4395 5.31331
702 2 2.2208 5.26815 30.0156 5.31376
703 1 -1.1104 1.08121 25.8341 1.12949
704 1 -1.1104 1.08118 25.8341 3.91875
705 1 -1.1104 1.07983 23.0454 1.12928
706 1 -1.1104 1.08296 28.623 1.1299
707 2 2.2208 5.26653 27.2278 2.5245
708 1 -1.1104 1.07966 23.0455 3.91844
709 1 -1.1104 1.08268 28.623 3.91893
710 1 -1.1104 3.87086 25.8328 1.12963
711 2 2.2208 2.47533 24.4406 2.52406
712 2 2.2208 2.4786 30.018 2.52476
713 1 -1.1104 3.8707 25.8326 3.9187
714 2 2.2208 2.47678 27.2289 5.31345
715 1 -1.1104 3.86919 23.0444 1.12911
716 1 -1.1104 3.87224 28.6212 1.12996
717 1 -1.1104 3.86925 23.0444 3.91857
718 1 -1.1104 3.87224 28.6209 3.91901
866 1 -1.1104 1.07959 23.0453 6.70783
729 1 -1.1104 6.65898 23.0438 1.12937
727 1 -1.1104 6.65886 23.0438 3.91839
720 1 -1.1104 6.66221 28.6198 1.13021
719 1 -1.1104 6.66211 28.6194 3.91905
726 1 -1.1104 6.66053 25.8317 3.91897
723 1 -1.1104 3.87061 25.8322 6.70805
721 1 -1.1104 3.87219 28.6201 6.70816
873 1 -1.1104 1.08105 25.8338 6.70796
867 1 -1.1104 6.66206 28.6188 6.7085
728 1 -1.1104 6.66039 25.8317 1.12951
868 1 -1.1104 6.6605 25.8313 6.70797
730 2 2.2208 10.8443 24.4399 5.31365
731 2 2.2208 10.848 30.0161 5.31466
732 1 -1.1104 12.2399 25.8321 1.12959
733 1 -1.1104 12.2402 25.8327 3.91962
734 1 -1.1104 12.2384 23.0442 1.12966
735 1 -1.1104 12.2421 28.6201 1.13082
736 2 2.2208 10.8461 27.2276 2.52494
737 1 -1.1104 12.2382 23.0445 3.91853
738 1 -1.1104 12.2419 28.6206 3.91947
739 1 -1.1104 9.45042 25.8315 1.12998
740 2 2.2208 8.0546 24.4392 2.5242
741 2 2.2208 8.05799 30.0152 2.52527
742 1 -1.1104 9.45028 25.8317 3.91883
743 2 2.2208 8.0563 27.2272 5.3138
744 1 -1.1104 9.44854 23.0436 1.12913
745 1 -1.1104 9.45186 28.6193 1.13013
746 1 -1.1104 9.44869 23.0438 3.9189
747 1 -1.1104 9.45221 28.6195 3.91979
927 2 2.2208 13.6339 24.4405 2.5244
978 2 2.2208 13.6376 30.0172 2.52572
748 1 -1.1104 9.45212 28.619 6.70845
753 2 2.2208 13.6357 27.2295 5.31427
722 1 -1.1104 6.65892 23.0436 6.70804
1025 1 -1.1104 12.3641 45.3842 9.43095
1387 2 2.2208 13.6228 41.2227 13.6644
9902 2 2.2208 13.7199 44.0116 10.8023
1023 1 -1.1104 12.2392 39.8882 12.2871
755 2 2.2208 5.2718 35.5921 5.31395
756 1 -1.1104 1.08444 31.4123 1.13019
757 1 -1.1104 1.08848 36.9927 1.13028
758 1 -1.1104 1.08422 31.412 3.91903
759 1 -1.1104 1.08735 36.9917 3.91849
760 1 -1.1104 1.08644 34.2021 1.13037
761 2 2.2208 5.27001 32.8049 2.52543
762 2 2.2208 5.27403 38.3835 2.52487
763 1 -1.1104 1.08596 34.2016 3.91908
764 1 -1.1104 3.87402 31.41 1.13032
765 1 -1.1104 3.87746 36.9889 1.13042
766 2 2.2208 2.48262 35.597 2.52518
767 1 -1.1104 3.87386 31.4093 3.91921
768 1 -1.1104 3.87702 36.9867 3.91871
769 2 2.2208 2.48024 32.8064 5.31367
770 2 2.2208 2.48487 38.3851 5.31248
771 1 -1.1104 3.8756 34.199 1.13065
772 1 -1.1104 3.87518 34.1978 3.9191
777 1 -1.1104 6.66631 36.9819 3.919
928 1 -1.1104 1.08764 36.989 6.70747
774 1 -1.1104 6.66553 34.1964 1.13107
781 1 -1.1104 6.66739 36.9852 1.13078
775 1 -1.1104 6.66374 31.4071 3.91948
776 1 -1.1104 6.6655 34.1945 3.91941
773 1 -1.1104 6.6636 31.4078 1.13058
782 1 -1.1104 6.66508 34.1921 6.70846
951 1 -1.1104 6.66379 31.4056 6.70833
783 1 -1.1104 1.08411 31.411 6.70818
925 1 -1.1104 1.08529 34.2 6.70786
779 1 -1.1104 3.87528 34.1955 6.70826
1010 1 -1.1104 9.31677 45.3502 9.37447
809 2 2.2208 13.6397 32.807 5.31542
788 2 2.2208 10.8517 35.5922 5.31564
789 1 -1.1104 12.2436 31.4079 1.13082
790 1 -1.1104 12.2477 36.9836 1.13178
791 1 -1.1104 12.2443 31.4086 3.92086
792 1 -1.1104 12.2488 36.9829 3.92098
793 1 -1.1104 12.2462 34.1958 1.13207