ITEM: TIMESTEP
374
ITEM: NUMBER OF ATOMS
17756
ITEM: BOX BOUNDS pp pp pp
-2.7717828229332220e-01 2.7617178282293317e+01
-3.4472205766305355e+00 3.3152722057663055e+02
-2.7717827830221448e-01 2.7617178278302212e+01
ITEM: ATOMS id type q x y z
1 2 2.2208 5.26405 2.13057 5.31652
2 1 -1.1104 1.07786 -2.05 1.13193
3 1 -1.1104 1.08061 3.52234 1.13241
4 1 -1.1104 1.07792 -2.04995 3.92165
5 1 -1.1104 1.08062 3.52239 3.92208
6 1 -1.1104 1.07931 0.73613 1.13247
7 2 2.2208 5.26274 -0.65555 2.5269
8 1 -1.1104 1.07922 0.736211 3.92157
9 1 -1.1104 3.86737 -2.04999 1.13223
10 1 -1.1104 3.87008 3.52223 1.13265
11 2 2.2208 2.47465 2.1306 2.52711
12 1 -1.1104 3.8673 -2.04995 3.92133
13 1 -1.1104 3.86998 3.52228 3.92176
14 2 2.2208 2.47328 -0.655507 5.31631
15 2 2.2208 2.47596 4.91677 5.31673
16 1 -1.1104 3.86867 0.736113 1.13214
17 1 -1.1104 3.8687 0.736154 3.92184
18 2 2.2208 5.26544 4.91664 2.52731
27 1 -1.1104 3.86862 0.736183 6.71098
679 2 2.2208 13.6411 18.8456 13.6858
21 2 2.2208 13.6352 7.70238 8.1064
19 1 -1.1104 6.65677 -2.04999 1.13194
26 1 -1.1104 6.65948 3.52219 3.92205
172 2 2.2208 13.6412 18.8466 2.52826
32 1 -1.1104 6.65948 3.52216 1.13238
24 1 -1.1104 6.65941 3.52216 6.71119
177 1 -1.1104 6.65669 -2.04994 6.71079
28 1 -1.1104 1.08054 3.52236 6.71119
22 1 -1.1104 1.07924 0.736189 6.71127
175 1 -1.1104 3.8673 -2.04991 6.71106
318 2 2.2208 13.6396 16.06 10.8962
555 2 2.2208 10.8501 16.0595 13.6857
33 1 -1.1104 6.6581 0.736129 3.92157
25 1 -1.1104 6.65819 0.736084 1.13246
31 1 -1.1104 6.6568 -2.04995 3.92166
35 2 2.2208 10.843 2.13048 5.31659
36 1 -1.1104 12.2357 -2.05005 1.13203
37 1 -1.1104 12.2385 3.5221 1.13243
38 1 -1.1104 12.2357 -2.05 3.92175
39 1 -1.1104 12.2385 3.52214 3.92214
40 1 -1.1104 12.2372 0.736036 1.13257
41 2 2.2208 10.8417 -0.655586 2.52699
42 1 -1.1104 12.2371 0.736094 3.92167
43 1 -1.1104 9.44631 -2.05001 1.13229
44 1 -1.1104 9.44903 3.5221 1.1327
45 2 2.2208 8.05356 2.1305 2.52714
46 1 -1.1104 9.4462 -2.04997 3.9214
47 1 -1.1104 9.44894 3.52214 3.9218
48 2 2.2208 8.05215 -0.655547 5.31635
49 1 -1.1104 9.44761 0.73605 1.13222
50 1 -1.1104 9.44762 0.73609 3.92193
51 2 2.2208 8.05487 4.91654 5.31673
52 2 2.2208 10.8444 4.91652 2.52736
57 1 -1.1104 12.237 0.736038 6.71139
684 2 2.2208 13.6352 7.70208 13.6853
59 1 -1.1104 12.2384 3.52207 6.71126
58 1 -1.1104 9.44618 -2.04998 6.71112
207 1 -1.1104 9.44752 0.73607 6.71105
29 1 -1.1104 6.6581 0.736112 6.71129
680 2 2.2208 8.06199 18.8451 13.6859
61 2 2.2208 5.26677 7.70271 5.31694
62 2 2.2208 5.26959 13.2748 5.31733
63 1 -1.1104 1.08338 9.09479 1.13284
64 1 -1.1104 1.08335 9.0948 3.92249
65 1 -1.1104 1.08206 6.30853 1.1329
66 1 -1.1104 1.08484 11.881 1.13331
67 2 2.2208 5.26823 10.4888 2.52778
68 1 -1.1104 1.08194 6.30861 3.92201
69 1 -1.1104 1.08471 11.881 3.92244
70 1 -1.1104 3.87286 9.09452 1.13309
71 2 2.2208 2.47739 7.70295 2.52755
72 2 2.2208 2.48019 13.2753 2.52797
73 1 -1.1104 3.87274 9.09454 3.92223
74 2 2.2208 2.47871 10.4891 5.31717
75 1 -1.1104 3.8714 6.30839 1.13259
76 1 -1.1104 3.87419 11.8807 1.13309
77 1 -1.1104 3.8714 6.3084 3.92225
78 1 -1.1104 3.87416 11.8806 3.92269
319 2 2.2208 13.6412 18.8462 8.10693
83 1 -1.1104 3.8727 9.0944 6.71188
80 1 -1.1104 6.66225 9.09427 3.92248
81 1 -1.1104 6.66226 9.09431 1.13282
84 1 -1.1104 6.66373 11.8803 1.13333
85 1 -1.1104 6.66093 6.30823 1.13286
89 1 -1.1104 1.08191 6.30851 6.71168
91 1 -1.1104 3.8741 11.8805 6.71183
90 1 -1.1104 1.08464 11.8809 6.71207
87 1 -1.1104 1.08326 9.09469 6.71165
88 1 -1.1104 3.87131 6.30835 6.71139
114 1 -1.1104 6.6608 6.30817 6.71166
257 1 -1.1104 9.45751 20.2364 12.2913
79 1 -1.1104 6.66363 11.8803 3.92243
82 1 -1.1104 6.66082 6.30825 3.92198
93 2 2.2208 10.8458 7.70249 5.31695
94 2 2.2208 10.8487 13.2744 5.31731
95 1 -1.1104 12.2413 9.09414 1.13281
96 1 -1.1104 12.2413 9.09413 3.92252
97 1 -1.1104 12.2399 6.30813 1.13294
98 1 -1.1104 12.2428 11.8801 1.1333
99 2 2.2208 10.8473 10.4885 2.52775
100 1 -1.1104 12.2398 6.30815 3.92202
101 1 -1.1104 12.2427 11.8801 3.92235
102 1 -1.1104 9.45183 9.09415 1.1331
103 2 2.2208 8.05632 7.7026 2.52754
104 2 2.2208 8.05915 13.2746 2.52796
105 1 -1.1104 9.45174 9.09416 3.92218
106 2 2.2208 8.05769 10.4885 5.31714
107 1 -1.1104 9.45036 6.30814 1.13259
108 1 -1.1104 9.45319 11.8801 1.13301
109 1 -1.1104 9.45036 6.30816 3.92228
110 1 -1.1104 9.45319 11.8801 3.92268
111 1 -1.1104 9.45028 6.30806 6.7114
280 1 -1.1104 12.2441 14.6654 12.2907
255 2 2.2208 13.6381 13.2743 8.1067
118 1 -1.1104 12.2412 9.09401 6.71159
261 1 -1.1104 9.45315 11.8799 6.71177
117 1 -1.1104 9.45172 9.09402 6.71188
259 2 2.2208 13.6366 10.4882 10.896
120 2 2.2208 5.27243 18.8469 5.3175
121 1 -1.1104 1.08617 14.6673 1.13322
122 1 -1.1104 1.08895 20.2404 1.1335
123 1 -1.1104 1.08613 14.6673 3.92279
124 1 -1.1104 1.08892 20.2402 3.92287
125 1 -1.1104 1.08761 17.4538 1.13357
126 2 2.2208 5.27103 16.061 2.52812
127 2 2.2208 5.27384 21.6333 2.52829
128 1 -1.1104 1.08757 17.4537 3.92267
129 1 -1.1104 3.87562 14.6669 1.13348
130 1 -1.1104 3.87836 20.2394 1.13365
131 2 2.2208 2.48299 18.8479 2.52819
132 1 -1.1104 3.87555 14.6668 3.92261
133 1 -1.1104 3.87838 20.2392 3.92276
134 2 2.2208 2.48155 16.0614 5.31742
135 2 2.2208 2.48435 21.634 5.31745
136 1 -1.1104 3.87694 17.4531 1.13341
137 1 -1.1104 3.87694 17.453 3.92287
139 1 -1.1104 6.66786 20.2383 3.92295
288 1 -1.1104 6.66791 20.2378 6.7121
142 1 -1.1104 3.87698 17.4526 6.71202
287 1 -1.1104 6.66643 17.452 6.71227
148 1 -1.1104 6.66649 17.4523 3.92271
143 1 -1.1104 3.8755 14.6665 6.71217
286 1 -1.1104 3.87823 20.2387 6.71217
169 1 -1.1104 9.4561 17.4516 6.71204
141 1 -1.1104 6.66649 17.4524 1.13361
140 1 -1.1104 6.66505 14.6664 1.13326
147 1 -1.1104 6.66784 20.2384 1.13355
138 1 -1.1104 6.66506 14.6663 3.92283
149 2 2.2208 10.8516 18.8462 5.31758
150 1 -1.1104 12.2442 14.666 1.13314
151 1 -1.1104 12.2472 20.2378 1.13349
152 1 -1.1104 12.2442 14.666 3.92286
153 1 -1.1104 12.2472 20.2378 3.92318
154 1 -1.1104 12.2457 17.452 1.13369
155 2 2.2208 10.8501 16.0604 2.52811
156 2 2.2208 10.8531 21.6322 2.52841
157 1 -1.1104 12.2457 17.452 3.92265
158 1 -1.1104 9.45466 14.6661 1.13349
159 1 -1.1104 9.45757 20.2379 1.1338
160 2 2.2208 8.062 18.8465 2.52825
161 1 -1.1104 9.45462 14.666 3.92256
162 1 -1.1104 9.45756 20.2378 3.92279
163 2 2.2208 8.06056 16.0604 5.31746
164 2 2.2208 8.06343 21.6322 5.31758
165 1 -1.1104 9.45603 17.452 1.1334
166 1 -1.1104 9.45608 17.4519 3.92299
316 1 -1.1104 9.45458 14.6658 6.71224
168 1 -1.1104 12.2442 14.6659 6.71188
174 1 -1.1104 12.2457 17.4518 6.7124
167 1 -1.1104 12.2472 20.2376 6.7121
289 1 -1.1104 6.66505 14.6661 6.71195
252 1 -1.1104 9.45458 14.6656 9.50133
23 1 -1.1104 3.86999 3.52226 6.71145
178 1 -1.1104 1.07782 -2.04992 6.71076
173 2 2.2208 13.6397 16.0605 5.31745
671 2 2.2208 13.6381 13.2739 13.6856
206 2 2.2208 13.6338 4.91627 10.8957
179 2 2.2208 5.26396 2.13046 10.8954
180 1 -1.1104 1.07772 -2.04998 12.2896
181 1 -1.1104 1.08044 3.52213 12.2901
182 1 -1.1104 1.07781 -2.04993 9.5005
183 1 -1.1104 1.08052 3.52225 9.50091
184 1 -1.1104 1.07912 0.736074 12.2902
185 2 2.2208 5.26266 -0.655523 8.10575
186 1 -1.1104 1.07915 0.736166 9.50041
187 1 -1.1104 3.86719 -2.04997 12.29
188 1 -1.1104 3.86989 3.52207 12.2904
189 2 2.2208 2.47458 2.13059 8.10594
190 1 -1.1104 3.86719 -2.04991 9.5002
191 1 -1.1104 3.86992 3.52217 9.50062
192 2 2.2208 2.47317 -0.655538 10.8952
193 2 2.2208 2.47586 4.91656 10.8956
194 1 -1.1104 3.86852 0.736071 12.2899
195 1 -1.1104 3.86861 0.736126 9.50071
196 2 2.2208 5.26535 4.91656 8.10614
203 2 2.2208 13.631 -0.655729 10.8953
686 2 2.2208 2.4745 2.13042 13.6849
204 1 -1.1104 6.65668 -2.04996 9.50052
199 1 -1.1104 6.6566 -2.04999 12.2897
197 1 -1.1104 6.65934 3.52194 12.2901
200 1 -1.1104 6.658 0.735993 12.2902
497 2 2.2208 10.8531 21.6307 13.6859
226 2 2.2208 13.6324 2.13039 8.10606
674 2 2.2208 13.6324 2.13019 13.685
198 1 -1.1104 6.65939 3.52208 9.50092
56 1 -1.1104 9.44892 3.52208 6.71151
55 1 -1.1104 12.2356 -2.05002 6.71086
205 1 -1.1104 6.65801 0.736078 9.50046
208 2 2.2208 10.8429 2.13031 10.8955
209 1 -1.1104 12.2355 -2.05012 12.2898
210 1 -1.1104 12.2383 3.52183 12.2902
211 1 -1.1104 12.2356 -2.05008 9.50059
212 1 -1.1104 12.2384 3.52194 9.501
213 1 -1.1104 12.2369 0.735875 12.2903
214 2 2.2208 10.8416 -0.655618 8.10583
215 1 -1.1104 12.2369 0.735954 9.50054
216 1 -1.1104 9.44611 -2.05005 12.29
217 1 -1.1104 9.44883 3.52187 12.2904
218 2 2.2208 8.05346 2.13045 8.10598
219 1 -1.1104 9.44609 -2.05002 9.50027
220 1 -1.1104 9.44885 3.52197 9.50067
221 2 2.2208 8.05206 -0.655619 10.8952
222 2 2.2208 8.05479 4.91633 10.8956
223 1 -1.1104 9.44744 0.735918 12.29
224 1 -1.1104 9.4475 0.735986 9.50079
225 2 2.2208 10.8443 4.91639 8.10619
584 2 2.2208 8.0534 2.13027 13.6849
673 2 2.2208 10.8443 4.91616 13.6851
675 2 2.2208 10.8415 -0.655754 13.6847
687 2 2.2208 5.26258 -0.655635 13.6847
92 2 2.2208 13.6382 13.2746 2.52793
228 2 2.2208 5.26669 7.70241 10.8958
229 2 2.2208 5.26956 13.2743 10.8961
230 1 -1.1104 1.08321 9.0942 12.2905
231 1 -1.1104 1.08321 9.09446 9.50135
232 1 -1.1104 1.08181 6.30816 12.2906
233 1 -1.1104 1.08463 11.8802 12.291
234 2 2.2208 5.26813 10.4886 8.10655
235 1 -1.1104 1.08183 6.30836 9.50085
236 1 -1.1104 1.08465 11.8806 9.50124
237 1 -1.1104 3.87265 9.09399 12.2908
238 2 2.2208 2.47727 7.70278 8.10637
239 2 2.2208 2.48009 13.2749 8.10671
240 1 -1.1104 3.87265 9.09422 9.50105
241 2 2.2208 2.47865 10.4886 10.896
242 1 -1.1104 3.87123 6.30804 12.2903
243 1 -1.1104 3.87409 11.8799 12.2907
244 1 -1.1104 3.87128 6.30819 9.5011
245 1 -1.1104 3.87406 11.8802 9.50148
251 1 -1.1104 6.66359 11.8799 9.50121
260 1 -1.1104 6.6636 11.8801 6.71206
248 1 -1.1104 6.66215 9.09398 9.5013
249 1 -1.1104 6.66074 6.30805 9.50082
672 2 2.2208 2.47725 7.70242 13.6853
678 2 2.2208 5.26813 10.4882 13.6855
677 2 2.2208 2.48011 13.2744 13.6856
676 2 2.2208 5.2653 4.91632 13.6851
256 1 -1.1104 12.2441 14.6656 9.50165
247 1 -1.1104 6.66358 11.8797 12.2909
246 1 -1.1104 6.66213 9.09379 12.2905
86 1 -1.1104 6.66218 9.09418 6.7116
250 1 -1.1104 6.66072 6.30788 12.2905
116 1 -1.1104 12.2398 6.30805 6.71174
115 1 -1.1104 12.2427 11.8799 6.71208
262 1 -1.1104 9.45311 11.8797 9.50147
263 1 -1.1104 9.45024 6.30793 9.50112
264 1 -1.1104 9.45311 11.8795 12.2906
265 1 -1.1104 9.4502 6.30778 12.2903
266 2 2.2208 8.05762 10.4882 10.896
267 1 -1.1104 9.45167 9.09386 9.501
268 2 2.2208 8.05908 13.2743 8.1067
269 2 2.2208 8.05622 7.70243 8.10635
270 2 2.2208 10.8457 7.70219 10.8958
271 2 2.2208 10.8486 13.274 10.8961
272 1 -1.1104 12.2411 9.09366 12.2905
273 1 -1.1104 12.2412 9.09383 9.50134
274 1 -1.1104 12.2397 6.30776 12.2906
275 1 -1.1104 12.2426 11.8796 12.2909
276 2 2.2208 10.8472 10.4883 8.10654
277 1 -1.1104 12.2397 6.3079 9.50085
278 1 -1.1104 12.2426 11.8798 9.50115
279 1 -1.1104 9.45164 9.09367 12.2907
681 2 2.2208 8.05618 7.70213 13.6852
682 2 2.2208 10.8471 10.4879 13.6854
683 2 2.2208 8.05908 13.2738 13.6856
145 1 -1.1104 1.08611 14.6671 6.71193
144 1 -1.1104 1.08896 20.2396 6.71201
119 2 2.2208 10.8531 21.6316 8.10699
291 1 -1.1104 6.66499 14.6657 9.50161
285 1 -1.1104 1.08747 17.4533 6.7122
294 1 -1.1104 3.87553 14.6662 9.50136
295 1 -1.1104 3.87686 17.4521 9.50161
296 1 -1.1104 1.08744 17.4523 12.2911
297 2 2.2208 2.48151 16.0606 10.8962
298 2 2.2208 2.48426 21.6324 10.8962
299 1 -1.1104 3.87695 17.4516 12.2909
300 1 -1.1104 3.87821 20.2373 12.2911
301 1 -1.1104 3.8755 14.6658 12.2911
302 1 -1.1104 1.08878 20.2389 9.50157
303 1 -1.1104 1.08752 17.4528 9.50141
304 2 2.2208 5.27378 21.6322 8.10682
305 1 -1.1104 1.08603 14.6667 9.50158
306 2 2.2208 5.271 16.0605 8.1068
307 1 -1.1104 1.08887 20.2382 12.291
308 1 -1.1104 1.0861 14.6663 12.2908
309 2 2.2208 5.2724 18.8459 10.8963
310 1 -1.1104 3.87835 20.2379 9.50148
311 2 2.2208 2.48293 18.8471 8.1068
284 1 -1.1104 6.66792 20.2365 12.291
685 2 2.2208 5.271 16.0598 13.6858
282 1 -1.1104 9.45457 14.6653 12.2911
313 1 -1.1104 9.45609 17.4509 12.2909
227 1 -1.1104 12.2456 17.4512 12.2912
312 1 -1.1104 9.45603 17.4513 9.50175
317 1 -1.1104 12.2472 20.237 12.2909
315 2 2.2208 8.06053 16.0598 10.8963
146 1 -1.1104 12.2471 20.2373 9.50192
170 1 -1.1104 9.45748 20.2374 6.7124
290 1 -1.1104 6.66643 17.4511 12.2912
254 1 -1.1104 12.2457 17.4515 9.50141
258 1 -1.1104 9.45757 20.2369 9.5015
283 1 -1.1104 6.66649 17.4515 9.50145
293 1 -1.1104 6.66505 14.6654 12.2908
281 2 2.2208 8.06199 18.8459 8.10689
646 2 2.2208 2.48289 18.8461 13.6858
292 1 -1.1104 6.66779 20.2371 9.5017
253 2 2.2208 8.06341 21.631 10.8963
20 2 2.2208 10.8516 18.8455 10.8964
314 2 2.2208 10.8501 16.0601 8.10683
373 2 2.2208 5.27376 21.6309 13.6859
171 2 2.2208 13.6428 21.6325 5.31769
202 2 2.2208 13.6426 21.6317 10.8964
54 2 2.2208 13.6325 2.1305 2.52722
34 2 2.2208 13.6339 4.91652 5.31681
53 2 2.2208 13.6311 -0.65559 5.31642
112 2 2.2208 13.6353 7.70258 2.52758
113 2 2.2208 13.6367 10.4885 5.31716
351 2 2.2208 5.26396 2.13027 16.4744
352 1 -1.1104 1.07773 -2.05012 17.8686
353 1 -1.1104 1.0805 3.52201 17.8691
354 1 -1.1104 1.07775 -2.05006 15.0794
355 1 -1.1104 1.08048 3.52203 15.0799
356 1 -1.1104 1.07916 0.73595 17.8691
357 2 2.2208 5.26263 -0.655794 19.2636
358 1 -1.1104 1.07909 0.735984 15.0794
359 1 -1.1104 3.86721 -2.05015 17.8689
360 1 -1.1104 3.86997 3.52192 17.8693
361 2 2.2208 2.47458 2.13032 19.2638
362 1 -1.1104 3.86716 -2.05006 15.0791
363 1 -1.1104 3.86988 3.52195 15.0796
364 2 2.2208 2.47315 -0.655696 16.4741
365 1 -1.1104 3.86854 0.73588 17.8688
366 1 -1.1104 3.86855 0.735965 15.0797
367 2 2.2208 2.47591 4.91637 16.4746
368 2 2.2208 5.26543 4.91626 19.264
564 2 2.2208 13.6311 -0.655873 22.0531
407 2 2.2208 13.6338 4.91609 16.4746
558 2 2.2208 13.6353 7.70203 19.2642
378 1 -1.1104 3.86865 0.735882 20.6586
380 1 -1.1104 1.07781 -2.05015 20.6583
371 1 -1.1104 6.65664 -2.0502 17.8686
372 1 -1.1104 6.65665 -2.05009 15.0794
370 1 -1.1104 6.65936 3.52187 15.0799
377 1 -1.1104 3.87 3.52192 20.6585
379 1 -1.1104 1.07916 0.735948 20.6583
376 1 -1.1104 3.8672 -2.05018 20.658
499 2 2.2208 13.6411 18.8452 19.2649
621 2 2.2208 13.6368 10.4881 22.0539
321 2 2.2208 13.6397 16.0605 27.6331
381 1 -1.1104 6.65804 0.735808 17.8692
382 1 -1.1104 6.65939 3.52178 17.869
369 1 -1.1104 6.65797 0.735895 15.0794
383 2 2.2208 10.8429 2.13014 16.4744
384 1 -1.1104 12.2356 -2.05029 17.8687
385 1 -1.1104 12.2384 3.52168 17.8691
386 1 -1.1104 12.2356 -2.05022 15.0795
387 1 -1.1104 12.2383 3.52174 15.0799
388 1 -1.1104 12.237 0.735721 17.8692
389 2 2.2208 10.8416 -0.655887 19.2637
390 2 2.2208 10.8444 4.91608 19.264
391 1 -1.1104 12.2369 0.735768 15.0795
392 1 -1.1104 9.44617 -2.05024 17.8689
393 1 -1.1104 9.4489 3.52172 17.8694
394 2 2.2208 8.05349 2.13016 19.2638
395 1 -1.1104 9.44608 -2.05016 15.0792
396 1 -1.1104 9.44882 3.52177 15.0796
397 2 2.2208 8.05206 -0.655797 16.4742
398 1 -1.1104 9.44748 0.735733 17.8689
399 1 -1.1104 9.44747 0.73583 15.0797
400 2 2.2208 8.05482 4.91614 16.4745
623 2 2.2208 13.6383 13.2742 24.8435
529 1 -1.1104 6.6595 3.52186 20.6588
330 2 2.2208 8.06056 16.0605 27.6331
500 2 2.2208 13.6426 21.6309 16.4754
30 2 2.2208 2.48437 21.6343 27.6334
412 2 2.2208 5.26676 7.7022 16.4747
413 2 2.2208 5.26959 13.2739 16.4751
414 1 -1.1104 1.08331 9.09409 17.8695
415 1 -1.1104 1.08326 9.09409 15.0803
416 1 -1.1104 1.08197 6.30806 17.8696
417 1 -1.1104 1.08475 11.8801 17.8699
418 2 2.2208 5.26823 10.4882 19.2644
419 1 -1.1104 1.08182 6.30806 15.0798
420 1 -1.1104 1.08467 11.8801 15.0802
421 1 -1.1104 3.87279 9.09386 17.8697
422 2 2.2208 2.4774 7.70242 19.2642
423 2 2.2208 2.48015 13.2744 19.2647
424 1 -1.1104 3.87266 9.09386 15.08
425 2 2.2208 2.47872 10.4884 16.475
426 1 -1.1104 3.87134 6.30789 17.8692
427 1 -1.1104 3.87411 11.8798 17.8697
428 1 -1.1104 3.87129 6.30793 15.08
429 1 -1.1104 3.87413 11.8798 15.0804
430 1 -1.1104 6.6622 9.09364 17.8694
441 1 -1.1104 6.66358 11.8795 15.0802
431 1 -1.1104 6.66073 6.30778 15.0797
527 2 2.2208 13.6397 16.0598 22.0542
433 1 -1.1104 6.66084 6.30775 17.8695
528 2 2.2208 13.6412 18.846 24.8439
437 1 -1.1104 3.87149 6.30797 20.659
435 1 -1.1104 3.87281 9.09397 20.6589
590 1 -1.1104 3.87423 11.88 20.6594
556 2 2.2208 13.6396 16.0596 16.4752
440 1 -1.1104 6.66365 11.8795 17.8699
432 1 -1.1104 6.66216 9.09367 15.0802
443 2 2.2208 10.8457 7.70199 16.4747
444 2 2.2208 10.8486 13.2736 16.4751
445 1 -1.1104 12.2412 9.09349 17.8694
446 1 -1.1104 12.2412 9.09354 15.0803
447 1 -1.1104 12.2398 6.30763 17.8696
448 1 -1.1104 12.2427 11.8793 17.8699
449 2 2.2208 10.8472 10.4879 19.2644
450 1 -1.1104 12.2397 6.30765 15.0798
451 1 -1.1104 12.2426 11.8794 15.0801
452 1 -1.1104 9.45174 9.09351 17.8697
453 2 2.2208 8.05631 7.70208 19.2642
454 2 2.2208 8.0591 13.2738 19.2646
455 1 -1.1104 9.45164 9.09354 15.0799
456 2 2.2208 8.05765 10.4879 16.4749
457 1 -1.1104 9.45028 6.30762 17.8692
458 1 -1.1104 9.45311 11.8793 17.8696
459 1 -1.1104 9.45024 6.30769 15.08
460 1 -1.1104 9.45312 11.8793 15.0804
624 1 -1.1104 12.2398 6.30765 20.6587
462 1 -1.1104 12.2427 11.8794 20.659
333 2 2.2208 10.8487 13.2744 27.6329
442 1 -1.1104 6.66087 6.30783 20.6587
465 1 -1.1104 9.45041 6.30769 20.659
464 1 -1.1104 12.2413 9.09358 20.6592
591 1 -1.1104 6.66361 11.8796 20.6592
438 1 -1.1104 6.66235 9.09376 20.6592
463 1 -1.1104 9.45323 11.8794 20.6594
466 1 -1.1104 9.45177 9.09358 20.6589
468 2 2.2208 5.27238 18.8453 16.4755
469 1 -1.1104 1.08608 14.6661 17.8699
470 1 -1.1104 1.08875 20.2379 17.8702
471 1 -1.1104 1.0861 14.6661 15.0805
472 1 -1.1104 1.08878 20.2378 15.0807
473 1 -1.1104 1.08751 17.452 17.8702
474 2 2.2208 5.27096 16.0598 19.2649
475 2 2.2208 5.27371 21.631 19.2652
476 1 -1.1104 1.08746 17.452 15.0805
477 1 -1.1104 3.87556 14.6656 17.8701
478 1 -1.1104 3.87828 20.237 17.8704
479 2 2.2208 2.48287 18.8462 19.265
480 1 -1.1104 3.87553 14.6656 15.0804
481 1 -1.1104 3.87825 20.2369 15.0806
482 2 2.2208 2.48152 16.0602 16.4753
483 2 2.2208 2.48421 21.6317 16.4755
484 1 -1.1104 3.87685 17.4514 17.8701
485 1 -1.1104 3.8769 17.4513 15.0807
502 1 -1.1104 6.66778 20.2362 17.8703
489 1 -1.1104 6.66645 17.4508 15.0805
487 1 -1.1104 6.66784 20.2362 15.0808
492 1 -1.1104 1.08616 14.6664 20.6596
328 2 2.2208 10.8516 18.8462 27.6333
320 2 2.2208 13.6428 21.6323 27.6335
493 1 -1.1104 6.66505 14.6652 15.0806
649 1 -1.1104 3.87692 17.4518 20.6598
588 1 -1.1104 12.247 20.2368 23.4491
585 1 -1.1104 12.2441 14.6655 23.4487
619 2 2.2208 10.8515 18.8452 22.0545
557 2 2.2208 8.0605 16.0597 22.0543
488 1 -1.1104 6.66499 14.6652 17.8699
486 1 -1.1104 6.66646 17.4508 17.8703
524 1 -1.1104 12.2442 14.6652 20.6596
504 2 2.2208 10.8516 18.8449 16.4754
505 1 -1.1104 12.2441 14.6651 17.8697
506 1 -1.1104 12.2472 20.2362 17.87
507 1 -1.1104 12.2441 14.6652 15.0806
508 1 -1.1104 12.2471 20.2365 15.0809
509 1 -1.1104 12.2456 17.4507 17.8703
510 2 2.2208 10.8501 16.0593 19.2648
511 2 2.2208 10.853 21.6302 19.2651
512 1 -1.1104 12.2456 17.4509 15.0803
513 1 -1.1104 9.4546 14.665 17.8701
514 1 -1.1104 9.45753 20.2359 17.8705
515 2 2.2208 8.06193 18.845 19.265
516 1 -1.1104 9.45459 14.665 15.0803
517 1 -1.1104 9.45757 20.236 15.0805
518 2 2.2208 8.06053 16.0594 16.4753
519 2 2.2208 8.06339 21.6302 16.4755
520 1 -1.1104 9.45601 17.4506 17.87
521 1 -1.1104 9.45605 17.4506 15.0808
522 1 -1.1104 12.2472 20.2363 20.66
523 1 -1.1104 9.45737 20.2362 20.6598
496 1 -1.1104 6.66786 20.2367 20.66
503 1 -1.1104 12.2456 17.4508 20.6594
643 1 -1.1104 12.2443 14.6658 26.2385
501 1 -1.1104 9.45605 17.4507 20.6598
525 1 -1.1104 9.45453 14.6652 20.6593
498 1 -1.1104 6.66788 20.2382 26.2388
618 1 -1.1104 9.45458 14.6659 26.2382
616 1 -1.1104 9.4575 20.2368 23.4495
644 1 -1.1104 12.2457 17.4512 23.4493
587 1 -1.1104 6.66646 17.4516 23.4493
668 1 -1.1104 6.66514 14.6662 26.2385
404 2 2.2208 13.6324 2.13009 19.2639
332 2 2.2208 13.6368 10.4885 27.6327
530 1 -1.1104 1.08064 3.52205 20.6588
531 2 2.2208 5.26408 2.13029 22.0532
532 1 -1.1104 1.07779 -2.05013 23.4475
533 1 -1.1104 1.08063 3.52211 23.448
534 1 -1.1104 1.0779 -2.05006 26.2372
535 1 -1.1104 1.0807 3.52221 26.2377
536 1 -1.1104 1.07927 0.735986 23.448
537 2 2.2208 5.26274 -0.655705 24.8424
538 1 -1.1104 1.07923 0.736063 26.2371
539 1 -1.1104 3.86731 -2.05014 23.4477
540 1 -1.1104 3.87012 3.52201 23.4482
541 2 2.2208 2.47468 2.13043 24.8427
542 1 -1.1104 3.86729 -2.05007 26.2369
543 1 -1.1104 3.87005 3.52215 26.2373
544 2 2.2208 2.47323 -0.655733 22.053
545 1 -1.1104 3.86865 0.735925 23.4477
546 1 -1.1104 3.86875 0.736026 26.2374
547 2 2.2208 5.26552 4.91645 24.8429
548 2 2.2208 2.47607 4.91645 22.0535
669 2 2.2208 10.853 21.6314 24.8442
324 2 2.2208 5.26412 2.13047 27.6321
553 1 -1.1104 6.6595 3.52192 23.4479
338 2 2.2208 2.47331 -0.655614 27.6318
322 2 2.2208 2.47606 4.91668 27.6323
409 1 -1.1104 9.45608 17.4517 26.2387
559 1 -1.1104 12.237 0.735715 20.6584
560 1 -1.1104 12.2385 3.52172 20.6588
401 1 -1.1104 9.44614 -2.05026 20.6581
375 1 -1.1104 6.65806 0.735817 20.6583
561 1 -1.1104 9.44893 3.52172 20.6585
326 2 2.2208 13.634 4.91648 27.6324
563 1 -1.1104 6.65673 -2.0502 20.6583
550 1 -1.1104 6.65818 0.735901 23.448
552 1 -1.1104 6.65682 -2.05007 26.2372
551 1 -1.1104 6.65814 0.735981 26.2371
439 1 -1.1104 9.45738 20.2375 26.2386
405 1 -1.1104 9.4476 0.735758 20.6586
336 2 2.2208 13.6312 -0.655672 27.632
554 1 -1.1104 6.65958 3.52205 26.2376
549 1 -1.1104 6.65672 -2.05016 23.4475
406 1 -1.1104 12.2357 -2.05028 20.6584
566 2 2.2208 10.843 2.13018 22.0533
567 1 -1.1104 12.2357 -2.05024 23.4476
568 1 -1.1104 12.2385 3.52185 23.448
569 1 -1.1104 12.2358 -2.05013 26.2373
570 1 -1.1104 12.2386 3.52199 26.2377
571 1 -1.1104 12.2371 0.735841 23.4481
572 2 2.2208 10.8417 -0.655754 24.8425
573 1 -1.1104 12.2371 0.73593 26.2372
574 1 -1.1104 9.44626 -2.05018 23.4478
575 1 -1.1104 9.44905 3.52187 23.4482
576 2 2.2208 8.0536 2.13032 24.8427
577 1 -1.1104 9.44623 -2.0501 26.2369
578 1 -1.1104 9.449 3.52199 26.2374
579 2 2.2208 8.05217 -0.655806 22.053
580 1 -1.1104 9.4476 0.735832 23.4478
581 1 -1.1104 9.4477 0.735958 26.2375
582 2 2.2208 8.05495 4.91623 22.0535
583 2 2.2208 10.8445 4.91632 24.8429
323 2 2.2208 8.05496 4.91648 27.6323
467 1 -1.1104 9.45467 14.6655 23.4491
526 2 2.2208 8.0633 21.6309 22.0548
337 2 2.2208 8.05223 -0.655634 27.6319
562 2 2.2208 13.6339 4.91617 22.0535
325 2 2.2208 10.8431 2.1304 27.6321
647 1 -1.1104 6.66506 14.6654 20.6596
402 2 2.2208 10.8501 16.06 24.8437
645 1 -1.1104 12.2472 20.2375 26.2389
434 1 -1.1104 1.08347 9.09424 20.6592
436 1 -1.1104 1.08201 6.30814 20.6588
589 1 -1.1104 1.08473 11.8803 20.6592
592 2 2.2208 5.26691 7.70235 22.0537
593 2 2.2208 5.26962 13.2743 22.0542
594 1 -1.1104 1.08344 9.0944 23.4484
595 1 -1.1104 1.08352 9.09462 26.2381
596 1 -1.1104 1.08213 6.30824 23.4485
597 1 -1.1104 1.0849 11.8806 23.4489
598 2 2.2208 5.26832 10.4886 24.8433
599 1 -1.1104 1.08204 6.30842 26.2376
600 1 -1.1104 1.08482 11.8809 26.238
601 1 -1.1104 3.87294 9.09417 23.4486
602 2 2.2208 2.47749 7.7027 24.8431
603 2 2.2208 2.48023 13.275 24.8436
604 1 -1.1104 3.87283 9.09441 26.2378
605 2 2.2208 2.47885 10.4886 22.0539
606 1 -1.1104 3.87146 6.3081 23.4481
607 1 -1.1104 3.87419 11.8802 23.4487
608 1 -1.1104 3.87152 6.30827 26.2378
609 1 -1.1104 3.87432 11.8805 26.2383
410 1 -1.1104 9.45591 17.4512 23.449
610 1 -1.1104 6.66089 6.30812 26.2375
615 1 -1.1104 6.66239 9.09415 26.2381
327 2 2.2208 2.47886 10.489 27.6327
329 2 2.2208 5.26689 7.70268 27.6325
331 2 2.2208 5.26968 13.2748 27.633
403 1 -1.1104 12.2456 17.4517 26.2383
620 2 2.2208 8.06192 18.846 24.844
612 1 -1.1104 6.6637 11.8802 26.2381
611 1 -1.1104 6.66377 11.8799 23.4489
614 1 -1.1104 6.66098 6.30795 23.4484
613 1 -1.1104 6.66231 9.09394 23.4484
625 1 -1.1104 9.4519 9.09379 23.4486
626 1 -1.1104 12.2428 11.8799 26.2379
627 1 -1.1104 12.2399 6.308 26.2376
628 2 2.2208 10.8473 10.4882 24.8433
629 1 -1.1104 12.2428 11.8796 23.4488
630 1 -1.1104 12.24 6.30783 23.4485
631 1 -1.1104 12.2414 9.09397 26.2381
632 1 -1.1104 12.2413 9.09375 23.4483
633 1 -1.1104 9.45331 11.8799 26.2383
634 1 -1.1104 9.45046 6.30801 26.2379
635 1 -1.1104 9.45319 11.8797 23.4486
636 1 -1.1104 9.45038 6.30784 23.4481
637 2 2.2208 8.05777 10.4881 22.0539
638 1 -1.1104 9.4518 9.09401 26.2378
639 2 2.2208 8.05918 13.2743 24.8436
640 2 2.2208 8.05639 7.70236 24.8431
641 2 2.2208 10.8459 7.70211 22.0537
642 2 2.2208 10.8487 13.2738 22.0541
334 2 2.2208 8.05778 10.4885 27.6327
335 2 2.2208 10.8459 7.70246 27.6325
648 1 -1.1104 3.87814 20.2376 20.6599
490 1 -1.1104 1.08892 20.2385 20.66
495 1 -1.1104 3.87545 14.6659 20.6594
491 1 -1.1104 1.08738 17.4525 20.6596
201 2 2.2208 2.48159 16.0615 27.6331
670 1 -1.1104 6.66498 14.6658 23.4489
494 1 -1.1104 6.66631 17.4511 20.6596
650 1 -1.1104 3.87831 20.2384 23.4495
651 1 -1.1104 3.87561 14.6663 23.4491
652 1 -1.1104 1.089 20.24 26.2388
653 1 -1.1104 1.08747 17.4535 26.2384
654 2 2.2208 2.48151 16.0607 22.0543
655 2 2.2208 2.48424 21.6328 22.0548
656 1 -1.1104 3.87679 17.4523 23.4491
657 1 -1.1104 1.08755 17.453 23.4492
658 1 -1.1104 3.87555 14.6667 26.2383
659 1 -1.1104 3.87697 17.4528 26.2386
660 2 2.2208 2.4829 18.8474 24.844
661 1 -1.1104 3.8782 20.2391 26.2387
662 2 2.2208 5.27233 18.846 22.0546
663 1 -1.1104 1.08609 14.6668 23.4488
664 1 -1.1104 1.08874 20.2393 23.4493
665 2 2.2208 5.27099 16.0606 24.8438
666 2 2.2208 5.27373 21.6326 24.8442
667 1 -1.1104 1.08626 14.6671 26.2385
586 1 -1.1104 6.66764 20.2374 23.4493
176 2 2.2208 5.2724 18.8471 27.6333
617 2 2.2208 13.6427 21.631 22.0546
411 1 -1.1104 6.66635 17.4521 26.2385
60 2 2.2208 8.0634 21.6324 27.6335
408 2 2.2208 13.631 -0.655888 16.4742
461 2 2.2208 13.6367 10.4879 16.4749
374 2 2.2208 13.6382 13.2738 19.2645
622 2 2.2208 13.6354 7.70233 24.8431
565 2 2.2208 13.6326 2.13029 24.8428
701 2 2.2208 5.27518 24.419 5.31745
702 2 2.2208 5.2778 29.9915 5.31722
703 1 -1.1104 1.09181 25.8144 1.13372
704 1 -1.1104 1.09164 25.8139 3.92274
705 1 -1.1104 1.09042 23.0272 1.13371
706 1 -1.1104 1.09334 28.602 1.13382
707 2 2.2208 5.27662 27.2062 2.52849
708 1 -1.1104 1.09041 23.0269 3.92273
709 1 -1.1104 1.09323 28.6014 3.92265
710 1 -1.1104 3.88114 25.8126 1.13376
711 2 2.2208 2.48581 24.4211 2.52831
712 2 2.2208 2.48872 29.9959 2.52847
713 1 -1.1104 3.88111 25.8121 3.92279
714 2 2.2208 2.4871 27.2072 5.31727
715 1 -1.1104 3.8797 23.0259 1.13366
716 1 -1.1104 3.88241 28.5997 1.13405
717 1 -1.1104 3.87964 23.0256 3.92282
718 1 -1.1104 3.88217 28.5989 3.92259
724 1 -1.1104 6.67208 28.5972 1.13401
881 1 -1.1104 3.87972 23.0247 6.71204
721 1 -1.1104 1.09263 28.5996 6.71161
719 1 -1.1104 1.09014 23.0261 6.71206
720 1 -1.1104 3.88075 25.8108 6.71189
722 1 -1.1104 6.66913 23.0235 6.71219
1374 2 2.2208 13.6265 41.1683 13.6632
731 1 -1.1104 6.66932 23.0242 3.92282
733 1 -1.1104 6.67057 25.8102 3.92287
726 1 -1.1104 1.09175 25.8127 6.71189
1160 2 2.2208 5.2697 38.3302 13.6844
1023 1 -1.1104 12.3992 47.9992 6.6252
732 1 -1.1104 6.66931 23.0246 1.13377
734 1 -1.1104 6.67063 25.8108 1.13388
730 1 -1.1104 6.67208 28.5962 3.92287
757 2 2.2208 13.6478 29.9905 2.52906
735 2 2.2208 10.8547 24.4177 5.31774
736 2 2.2208 10.8577 29.9888 5.31786
737 1 -1.1104 12.2503 25.8095 1.1338
738 1 -1.1104 12.2504 25.8093 3.92344
739 1 -1.1104 12.2489 23.0237 1.13407
740 1 -1.1104 12.2522 28.5953 1.1345
741 2 2.2208 10.8562 27.2039 2.52882
742 1 -1.1104 12.2488 23.0236 3.92285
743 1 -1.1104 12.2522 28.5948 3.92299
744 1 -1.1104 9.46056 25.8096 1.13408
745 2 2.2208 8.06489 24.4185 2.52847
746 2 2.2208 8.06767 29.9907 2.52891
747 1 -1.1104 9.46056 25.8092 3.92291
748 2 2.2208 8.06625 27.2036 5.31755
749 1 -1.1104 9.45897 23.0237 1.13368
750 1 -1.1104 9.46187 28.5954 1.13417
751 1 -1.1104 9.459 23.0235 3.92312
752 1 -1.1104 9.46192 28.5948 3.92315
905 1 -1.1104 9.45905 23.0229 6.71213
911 1 -1.1104 12.2504 25.8087 6.71222
753 1 -1.1104 9.46205 28.593 6.71203
754 1 -1.1104 12.252 28.5939 6.71283
910 1 -1.1104 9.46037 25.8082 6.7124
912 1 -1.1104 12.2487 23.0232 6.71263
988 2 2.2208 8.07007 41.1336 8.10711
758 2 2.2208 5.28014 35.5656 5.31668
759 1 -1.1104 1.09475 31.3904 1.13395
760 1 -1.1104 1.09841 36.9707 1.134
761 1 -1.1104 1.09429 31.3894 3.9224
762 1 -1.1104 1.097 36.9686 3.92149
763 1 -1.1104 1.09648 34.1798 1.13398
764 2 2.2208 5.27931 32.7807 2.5289
765 2 2.2208 5.28217 38.359 2.52807
766 1 -1.1104 1.09616 34.1784 3.92233
767 1 -1.1104 3.88383 31.3875 1.13396
768 1 -1.1104 3.88657 36.9659 1.13389
769 2 2.2208 2.49212 35.5738 2.52863
770 1 -1.1104 3.88372 31.3861 3.92279
771 1 -1.1104 3.8861 36.9627 3.922
772 2 2.2208 2.48995 32.7822 5.31689
773 2 2.2208 2.49355 38.3608 5.31534
774 1 -1.1104 3.88513 34.176 1.13453
775 1 -1.1104 3.8843 34.1738 3.92204
781 1 -1.1104 3.88423 36.9567 6.70974
790 1 -1.1104 6.67411 36.9551 3.92095
791 1 -1.1104 6.67611 36.9602 1.13461
789 1 -1.1104 6.67456 34.1716 1.13431
779 1 -1.1104 1.09447 31.387 6.71147
780 1 -1.1104 1.09496 34.175 6.71079
937 1 -1.1104 3.8846 34.1697 6.71142
782 1 -1.1104 6.67476 36.9478 6.71057
778 1 -1.1104 3.88281 31.3831 6.71125
961 1 -1.1104 6.67324 31.3793 6.71165
879 1 -1.1104 9.28251 47.9133 6.56728
777 1 -1.1104 6.67461 34.1686 3.92265
788 1 -1.1104 6.67297 31.3823 3.9225
783 1 -1.1104 6.67328 34.1638 6.71062
776 1 -1.1104 6.67324 31.384 1.13455
792 2 2.2208 10.8602 35.5593 5.31728
793 1 -1.1104 12.2536 31.381 1.13428
794 1 -1.1104 12.2573 36.9528 1.13389
795 1 -1.1104 12.2539 31.38 3.92357
796 1 -1.1104 12.2571 36.9484 3.9213
797 1 -1.1104 12.2556 34.1668 1.13467
798 2 2.2208 10.8591 32.7757 2.52945
799 2 2.2208 10.8593 38.3488 2.52858
800 1 -1.1104 12.256 34.1647 3.92268
801 1 -1.1104 9.46349 31.3816 1.13454
802 1 -1.1104 9.46576 36.9556 1.13419
803 2 2.2208 8.0699 35.5648 2.52937
804 1 -1.1104 9.46359 31.3801 3.92293
805 1 -1.1104 9.466 36.9509 3.92193
806 2 2.2208 8.06879 32.775 5.31715
807 2 2.2208 8.06896 38.347 5.31691
808 1 -1.1104 9.46462 34.168 1.13498
809 1 -1.1104 9.46454 34.1656 3.92248
904 2 2.2208 13.6512 35.5623 2.52877
811 1 -1.1104 12.2538 31.3785 6.71225
815 1 -1.1104 12.2578 36.9436 6.71153
814 1 -1.1104 9.46506 36.9407 6.71033
817 2 2.2208 13.6495 32.7756 5.31778
813 1 -1.1104 9.46487 34.16 6.71137
934 2 2.2208 13.6443 24.4179 8.10706
816 1 -1.1104 12.2554 34.162 6.71288
818 2 2.2208 13.6531 38.3444 5.31327
819 2 2.2208 5.28101 41.1416 5.31216
820 2 2.2208 5.26672 46.7392 5.28889