ITEM: TIMESTEP
317
ITEM: NUMBER OF ATOMS
17744
ITEM: BOX BOUNDS pp pp pp
-2.7717828229332220e-01 2.7617178282293317e+01
-3.4472205766305355e+00 3.3152722057663055e+02
-2.7717827830221448e-01 2.7617178278302212e+01
ITEM: ATOMS id type q x y z
1 2 2.2208 5.25078 2.13158 5.3238
2 1 -1.1104 1.0638 -2.05069 1.13908
3 1 -1.1104 1.06748 3.5239 1.13954
4 1 -1.1104 1.06387 -2.05068 3.92893
5 1 -1.1104 1.06752 3.52392 3.92934
6 1 -1.1104 1.06569 0.736588 1.13972
7 2 2.2208 5.24894 -0.655658 2.53414
8 1 -1.1104 1.06564 0.736604 3.92876
9 1 -1.1104 3.85331 -2.05068 1.1395
10 1 -1.1104 3.85698 3.52382 1.13994
11 2 2.2208 2.46131 2.13161 2.53435
12 1 -1.1104 3.85325 -2.05068 3.92854
13 1 -1.1104 3.85694 3.52381 3.92897
14 2 2.2208 2.45948 -0.655653 5.32357
15 2 2.2208 2.46314 4.91889 5.32397
16 1 -1.1104 3.8551 0.736556 1.13934
17 1 -1.1104 3.85515 0.736557 3.92918
18 2 2.2208 5.25262 4.91884 2.53458
27 1 -1.1104 1.06748 3.52388 6.71838
31 1 -1.1104 6.64457 0.736566 3.92878
19 1 -1.1104 6.64272 -2.05067 6.71797
33 1 -1.1104 6.64272 -2.05067 1.1391
25 1 -1.1104 3.85696 3.52382 6.7188
28 1 -1.1104 3.85509 0.73657 6.71821
36 1 -1.1104 6.64462 0.736581 1.13976
317 2 2.2208 13.6322 21.6431 10.9036
22 1 -1.1104 1.06382 -2.05067 6.71799
26 1 -1.1104 1.06569 0.736601 6.7186
20 1 -1.1104 3.85331 -2.05066 6.71839
23 1 -1.1104 6.6464 3.52378 6.71844
699 2 2.2208 8.05136 18.8545 13.6929
38 1 -1.1104 6.64277 -2.05067 3.92893
34 1 -1.1104 6.64646 3.5238 3.92941
32 1 -1.1104 6.64641 3.52382 1.13956
39 2 2.2208 10.8297 2.13161 5.32382
40 1 -1.1104 12.2216 -2.05072 1.13912
41 1 -1.1104 12.2253 3.52385 1.13957
42 1 -1.1104 12.2217 -2.05072 3.92893
43 1 -1.1104 12.2254 3.52387 3.92943
44 1 -1.1104 12.2235 0.736571 1.13976
45 2 2.2208 10.8279 -0.655667 2.53414
46 1 -1.1104 12.2235 0.73657 3.92878
47 1 -1.1104 9.43223 -2.05067 1.1395
48 1 -1.1104 9.43594 3.52385 1.13999
49 2 2.2208 8.04026 2.13161 2.53438
50 1 -1.1104 9.43218 -2.0507 3.92852
51 1 -1.1104 9.4359 3.52384 3.92902
52 2 2.2208 8.0384 -0.655657 5.32357
53 1 -1.1104 9.43403 0.736588 1.13935
54 1 -1.1104 9.4341 0.736573 3.92918
55 2 2.2208 8.0421 4.91883 5.32404
56 2 2.2208 10.8316 4.91889 2.53463
21 2 2.2208 13.6173 -0.655699 5.32356
209 2 2.2208 13.621 4.91894 5.32405
62 1 -1.1104 9.43593 3.52381 6.71886
208 2 2.2208 13.6192 2.13162 2.53439
35 1 -1.1104 6.64461 0.736544 6.71862
676 2 2.2208 13.6303 18.8555 13.6929
57 1 -1.1104 12.2253 3.52386 6.71845
58 1 -1.1104 9.43405 0.73656 6.7182
61 1 -1.1104 12.2217 -2.05072 6.71796
59 1 -1.1104 12.2236 0.736566 6.7186
63 2 2.2208 5.25446 7.70609 5.32419
64 2 2.2208 5.25814 13.2806 5.32445
65 1 -1.1104 1.07118 9.0986 1.13995
66 1 -1.1104 1.0712 9.0986 3.92971
67 1 -1.1104 1.06937 6.31124 1.14014
68 1 -1.1104 1.07306 11.886 1.14044
69 2 2.2208 5.2563 10.4934 2.53491
70 1 -1.1104 1.06931 6.31124 3.92916
71 1 -1.1104 1.07302 11.886 3.92946
72 1 -1.1104 3.86067 9.09843 1.14034
73 2 2.2208 2.465 7.70623 2.53475
74 2 2.2208 2.46867 13.281 2.53502
75 1 -1.1104 3.86063 9.09841 3.92934
76 2 2.2208 2.46685 10.4935 5.32428
77 1 -1.1104 3.85877 6.31111 1.13978
78 1 -1.1104 3.86246 11.8858 1.14007
79 1 -1.1104 3.8588 6.3111 3.92958
80 1 -1.1104 3.86249 11.8857 3.92981
81 1 -1.1104 6.64825 6.31105 3.92922
95 1 -1.1104 6.65011 9.09831 1.13997
90 1 -1.1104 6.65197 11.8856 1.14047
83 1 -1.1104 3.86246 11.8856 6.71886
91 1 -1.1104 6.65012 9.09825 6.71879
86 1 -1.1104 3.85877 6.31108 6.71861
93 1 -1.1104 3.86067 9.09836 6.71913
89 1 -1.1104 6.65014 9.09832 3.92978
119 1 -1.1104 6.64828 6.31101 6.71906
87 1 -1.1104 1.06935 6.31119 6.71896
88 1 -1.1104 6.6483 6.31106 1.1402
82 1 -1.1104 1.07301 11.8859 6.71919
151 2 2.2208 13.6304 18.8557 8.11415
94 1 -1.1104 6.65196 11.8856 3.9295
264 2 2.2208 13.6247 10.4936 5.32442
96 2 2.2208 10.8334 7.70617 5.32425
97 2 2.2208 10.8371 13.2807 5.32456
98 1 -1.1104 12.2291 9.09843 1.14001
99 1 -1.1104 12.2291 9.09848 3.92985
100 1 -1.1104 12.2273 6.31114 1.14022
101 1 -1.1104 12.231 11.8857 1.14059
102 2 2.2208 10.8353 10.4935 2.53499
103 1 -1.1104 12.2272 6.31118 3.92923
104 1 -1.1104 12.231 11.8858 3.92956
105 1 -1.1104 9.43964 9.09836 1.14041
106 2 2.2208 8.04395 7.70611 2.53481
107 2 2.2208 8.04764 13.2806 2.53509
108 1 -1.1104 9.43959 9.09839 3.92941
109 2 2.2208 8.04579 10.4934 5.32438
110 1 -1.1104 9.43774 6.3111 1.13981
111 1 -1.1104 9.44143 11.8856 1.14013
112 1 -1.1104 9.43778 6.31111 3.92965
113 1 -1.1104 9.44149 11.8856 3.92998
118 1 -1.1104 9.44145 11.8856 6.71898
121 2 2.2208 13.6266 13.2809 2.53514
117 1 -1.1104 9.43773 6.31108 6.71866
114 1 -1.1104 12.2272 6.31115 6.71908
115 1 -1.1104 12.2291 9.09845 6.71884
316 2 2.2208 13.6229 7.70627 2.53483
267 1 -1.1104 12.231 11.8857 6.71943
123 2 2.2208 5.26179 18.8552 5.32458
124 1 -1.1104 1.07483 14.6735 1.14023
125 1 -1.1104 1.07843 20.2485 1.14042
126 1 -1.1104 1.07482 14.6734 3.92994
127 1 -1.1104 1.0784 20.2484 3.92998
128 1 -1.1104 1.07669 17.4609 1.14065
129 2 2.2208 5.25998 16.068 2.53516
130 2 2.2208 5.26356 21.6427 2.53532
131 1 -1.1104 1.07664 17.4609 3.92968
132 1 -1.1104 3.86431 14.6731 1.14057
133 1 -1.1104 3.86791 20.2479 1.14071
134 2 2.2208 2.47231 18.8558 2.53522
135 1 -1.1104 3.86429 14.6731 3.9296
136 1 -1.1104 3.8679 20.2477 3.92975
137 2 2.2208 2.47045 16.0682 5.32451
138 2 2.2208 2.47403 21.643 5.32455
139 1 -1.1104 3.86611 17.4605 1.14036
140 1 -1.1104 3.86611 17.4604 3.93001
141 1 -1.1104 6.65377 14.6728 1.14024
153 1 -1.1104 6.65567 17.4601 1.14072
157 1 -1.1104 6.65565 17.46 3.92972
149 1 -1.1104 6.65562 17.4598 6.71947
146 1 -1.1104 3.86609 17.4601 6.71907
142 1 -1.1104 1.0748 14.6732 6.71897
145 1 -1.1104 1.07654 17.4606 6.71936
177 1 -1.1104 6.65749 20.2469 6.71909
293 1 -1.1104 3.86782 20.2473 6.71936
144 1 -1.1104 6.65741 20.2474 1.14046
147 1 -1.1104 6.65379 14.6727 6.71905
148 1 -1.1104 1.0784 20.2481 6.71907
143 1 -1.1104 3.86426 14.6729 6.71934
679 2 2.2208 13.6266 13.2808 13.6928
152 1 -1.1104 6.65744 20.2472 3.9301
314 2 2.2208 13.6304 18.8556 2.53538
156 1 -1.1104 6.6538 14.6728 3.93002
155 1 -1.1104 12.2328 14.673 6.7191
270 2 2.2208 13.6285 16.0683 5.32469
268 2 2.2208 13.6323 21.6431 5.32484
158 2 2.2208 10.8409 18.8552 5.32472
159 1 -1.1104 12.2328 14.673 1.14027
160 1 -1.1104 12.2366 20.2475 1.14046
161 1 -1.1104 12.2329 14.6731 3.93016
162 1 -1.1104 12.2367 20.2476 3.93034
163 1 -1.1104 12.2348 17.4602 1.14084
164 2 2.2208 10.839 16.068 2.53525
165 2 2.2208 10.8427 21.6425 2.53546
166 1 -1.1104 12.2347 17.4603 3.92977
167 1 -1.1104 9.44334 14.6728 1.14068
168 1 -1.1104 9.44705 20.2473 1.14088
169 2 2.2208 8.05134 18.8551 2.53529
170 1 -1.1104 9.44332 14.6728 3.92966
171 1 -1.1104 9.44706 20.2472 3.92979
172 2 2.2208 8.0495 16.0678 5.32461
173 2 2.2208 8.05317 21.6421 5.32468
174 1 -1.1104 9.44518 17.46 1.14036
175 1 -1.1104 9.4452 17.4601 3.93018
180 1 -1.1104 9.44708 20.247 6.71963
176 1 -1.1104 9.44333 14.6728 6.71953
178 1 -1.1104 12.2367 20.2476 6.71921
154 1 -1.1104 12.2348 17.4603 6.71968
181 1 -1.1104 9.44523 17.4599 6.71913
186 2 2.2208 5.25076 2.13154 10.9027
187 1 -1.1104 1.06385 -2.05075 12.2969
188 1 -1.1104 1.06746 3.52381 12.2973
189 1 -1.1104 1.06389 -2.05067 9.50785
190 1 -1.1104 1.0675 3.52388 9.50821
191 1 -1.1104 1.06571 0.736527 12.2975
192 2 2.2208 5.24894 -0.655666 8.11302
193 1 -1.1104 1.06567 0.736598 9.50765
194 1 -1.1104 3.85337 -2.05074 12.2973
195 1 -1.1104 3.85695 3.52376 12.2977
196 2 2.2208 2.46131 2.13161 8.11322
197 1 -1.1104 3.8533 -2.05069 9.50744
198 1 -1.1104 3.85691 3.52381 9.50784
199 2 2.2208 2.45951 -0.655686 10.9025
200 2 2.2208 2.46312 4.91884 10.9029
201 1 -1.1104 3.85514 0.736507 12.2971
202 1 -1.1104 3.85515 0.736555 9.50805
203 2 2.2208 5.25259 4.91881 8.11345
204 1 -1.1104 6.64638 3.52373 12.2973
217 1 -1.1104 6.64642 3.52376 9.50827
214 1 -1.1104 6.6428 -2.05069 9.50781
215 1 -1.1104 6.64457 0.736531 9.50766
681 2 2.2208 5.25258 4.91876 13.6923
213 1 -1.1104 6.6428 -2.05072 12.2969
120 1 -1.1104 9.44713 20.2469 9.50854
680 2 2.2208 5.24899 -0.65573 13.6919
682 2 2.2208 2.46132 2.13154 13.6921
60 1 -1.1104 9.43224 -2.05068 6.71835
688 2 2.2208 10.8315 4.91879 13.6923
205 1 -1.1104 6.64464 0.736505 12.2975
206 2 2.2208 13.6192 2.13161 8.11324
693 2 2.2208 8.0439 7.70597 13.6925
683 2 2.2208 13.6192 2.1316 13.6921
218 2 2.2208 10.8297 2.13157 10.9027
219 1 -1.1104 12.2217 -2.05073 12.2969
220 1 -1.1104 12.2253 3.52382 12.2973
221 1 -1.1104 12.2217 -2.05072 9.5078
222 1 -1.1104 12.2254 3.52383 9.50829
223 1 -1.1104 12.2236 0.73655 12.2975
224 2 2.2208 10.8279 -0.65568 8.113
225 1 -1.1104 12.2235 0.736552 9.50763
226 1 -1.1104 9.43231 -2.05073 12.2973
227 1 -1.1104 9.4359 3.52375 12.2977
228 2 2.2208 8.04024 2.13156 8.11325
229 1 -1.1104 9.43223 -2.05068 9.5074
230 1 -1.1104 9.43586 3.52378 9.50787
231 2 2.2208 8.03844 -0.655695 10.9025
232 2 2.2208 8.04206 4.91878 10.9029
233 1 -1.1104 9.43406 0.73651 12.2971
234 1 -1.1104 9.43409 0.736545 9.50804
235 2 2.2208 10.8315 4.91886 8.11347
207 2 2.2208 13.6173 -0.655684 10.9024
689 2 2.2208 8.04025 2.13151 13.6921
30 2 2.2208 13.621 4.91891 10.9029
687 2 2.2208 10.8279 -0.655725 13.6919
85 1 -1.1104 1.0712 9.09852 6.71874
92 1 -1.1104 6.65196 11.8855 6.71933
692 2 2.2208 2.46864 13.2805 13.6927
690 2 2.2208 2.46496 7.70606 13.6925
691 2 2.2208 5.25627 10.4932 13.6927
242 2 2.2208 5.25444 7.70603 10.9031
243 2 2.2208 5.25811 13.2804 10.9033
244 1 -1.1104 1.07116 9.09836 12.2976
245 1 -1.1104 1.0712 9.09845 9.50855
246 1 -1.1104 1.06931 6.31109 12.2979
247 1 -1.1104 1.07297 11.8856 12.2981
248 2 2.2208 5.2563 10.4933 8.11374
249 1 -1.1104 1.06931 6.31117 9.50802
250 1 -1.1104 1.07298 11.8857 9.50828
251 1 -1.1104 3.86063 9.09823 12.298
252 2 2.2208 2.465 7.70616 8.11357
253 2 2.2208 2.46864 13.2807 8.11381
254 1 -1.1104 3.86064 9.0983 9.50818
255 2 2.2208 2.46682 10.4934 10.9032
256 1 -1.1104 3.85873 6.31099 12.2975
257 1 -1.1104 3.86243 11.8854 12.2978
258 1 -1.1104 3.85879 6.31106 9.50844
259 1 -1.1104 3.86245 11.8855 9.50867
261 1 -1.1104 6.64823 6.311 9.50807
265 1 -1.1104 6.65014 9.09822 9.50863
269 1 -1.1104 6.64824 6.31095 12.2979
260 1 -1.1104 6.65193 11.8853 12.2982
266 1 -1.1104 6.6501 9.09815 12.2977
116 1 -1.1104 9.43962 9.09834 6.71925
271 1 -1.1104 6.65194 11.8854 9.50837
262 2 2.2208 13.6266 13.2809 8.11397
694 2 2.2208 8.04763 13.2803 13.6928
211 2 2.2208 13.6247 10.4935 10.9033
210 2 2.2208 13.6229 7.70623 8.11367
272 1 -1.1104 9.44147 11.8855 9.50885
273 1 -1.1104 9.43775 6.31103 9.50849
274 1 -1.1104 9.44143 11.8854 12.2978
275 1 -1.1104 9.4377 6.31098 12.2975
276 2 2.2208 8.04578 10.4932 10.9032
277 1 -1.1104 9.4396 9.09826 9.50826
278 2 2.2208 8.04763 13.2805 8.11393
279 2 2.2208 8.04394 7.70606 8.11366
280 2 2.2208 10.8334 7.70609 10.9031
281 2 2.2208 10.8371 13.2806 10.9034
282 1 -1.1104 12.2291 9.09838 12.2977
283 1 -1.1104 12.2291 9.09841 9.5087
284 1 -1.1104 12.2272 6.3111 12.2979
285 1 -1.1104 12.2309 11.8857 12.2983
286 2 2.2208 10.8353 10.4934 8.11384
287 1 -1.1104 12.2272 6.31113 9.50808
288 1 -1.1104 12.2309 11.8857 9.5084
289 1 -1.1104 9.43961 9.0982 12.2981
697 2 2.2208 10.8352 10.4933 13.6927
684 2 2.2208 13.6228 7.70618 13.6925
696 2 2.2208 5.25998 16.0674 13.6929
313 1 -1.1104 3.86427 14.6727 9.50843
312 1 -1.1104 3.86604 17.4599 9.50881
294 1 -1.1104 6.65378 14.6726 9.50888
291 1 -1.1104 6.65381 14.6724 12.2979
236 1 -1.1104 6.65749 20.2463 12.298
296 1 -1.1104 1.07656 17.46 12.2982
297 2 2.2208 2.47044 16.0678 10.9033
298 2 2.2208 2.47393 21.642 10.9033
299 1 -1.1104 3.8661 17.4596 12.298
300 1 -1.1104 3.86779 20.2466 12.2983
301 1 -1.1104 3.86428 14.6725 12.2982
302 1 -1.1104 1.07825 20.2476 9.50873
303 1 -1.1104 1.07659 17.4603 9.50847
304 2 2.2208 5.26355 21.6419 8.11392
305 1 -1.1104 1.07476 14.673 9.50872
306 2 2.2208 5.25995 16.0677 8.11394
307 1 -1.1104 1.0783 20.2472 12.298
308 1 -1.1104 1.07481 14.6728 12.2979
309 2 2.2208 5.26178 18.8546 10.9034
310 1 -1.1104 3.86789 20.2469 9.5085
311 2 2.2208 2.47222 18.8553 8.11391
295 1 -1.1104 6.65566 17.4596 9.5085
241 1 -1.1104 6.65564 17.4594 12.2984
698 2 2.2208 2.47222 18.8547 13.6929
686 2 2.2208 5.26352 21.6412 13.6929
700 2 2.2208 10.839 16.0677 13.6929
695 2 2.2208 10.8427 21.6421 13.6929
179 1 -1.1104 12.2366 20.2477 12.298
150 1 -1.1104 9.44525 17.4597 12.2979
318 2 2.2208 10.839 16.0679 8.11407
182 2 2.2208 8.05136 18.8548 8.11402
37 1 -1.1104 9.44709 20.2468 12.2985
323 2 2.2208 8.0495 16.0675 10.9034
322 1 -1.1104 12.2328 14.673 12.2979
239 1 -1.1104 9.44522 17.4598 9.509
84 1 -1.1104 12.2329 14.673 9.50898
324 1 -1.1104 9.44334 14.6727 9.5085
320 1 -1.1104 12.2348 17.4603 9.50858
122 1 -1.1104 12.2347 17.4603 12.2985
325 2 2.2208 10.8409 18.855 10.9035
319 2 2.2208 8.05319 21.6416 10.9034
292 1 -1.1104 6.65744 20.2466 9.50889
315 2 2.2208 10.8428 21.6423 8.11414
184 2 2.2208 13.6285 16.0682 10.9035
321 1 -1.1104 12.2366 20.2476 9.50917
24 1 -1.1104 9.44333 14.6726 12.2984
263 2 2.2208 10.826 -3.44294 5.32332
29 2 2.2208 13.6155 -3.44298 8.11277
685 2 2.2208 13.6155 -3.44302 13.6917
290 2 2.2208 2.45767 -3.4429 8.1128
185 2 2.2208 13.6155 -3.443 2.5339
238 2 2.2208 2.45766 -3.44293 2.53389
212 2 2.2208 5.2471 -3.4429 5.32333
240 2 2.2208 8.03657 -3.44291 2.53389
183 2 2.2208 5.24716 -3.44294 10.9022
677 2 2.2208 2.45768 -3.44299 13.6917
237 2 2.2208 10.8261 -3.44294 10.9022
678 2 2.2208 8.03664 -3.44298 13.6917
216 2 2.2208 8.03659 -3.44291 8.11276
351 2 2.2208 5.2508 2.13153 16.4815
352 1 -1.1104 1.0638 -2.05074 17.8757
353 1 -1.1104 1.0675 3.52379 17.8762
354 1 -1.1104 1.06386 -2.05077 15.0867
355 1 -1.1104 1.06751 3.52379 15.0871
356 1 -1.1104 1.06572 0.736529 17.8764
357 2 2.2208 5.24896 -0.65572 19.2707
358 1 -1.1104 1.06566 0.736507 15.0865
359 1 -1.1104 3.85333 -2.05076 17.8761
360 1 -1.1104 3.857 3.52376 17.8766
361 2 2.2208 2.46135 2.13155 19.271
362 1 -1.1104 3.8533 -2.05076 15.0863
363 1 -1.1104 3.85692 3.52374 15.0867
364 2 2.2208 2.4595 -0.65572 16.4813
365 1 -1.1104 3.85513 0.736509 17.8759
366 1 -1.1104 3.85518 0.736502 15.0869
367 2 2.2208 2.46314 4.9188 16.4817
368 2 2.2208 5.25263 4.91877 19.2712
381 1 -1.1104 6.64642 3.52373 17.8762
387 1 -1.1104 6.64644 3.52371 15.0871
383 1 -1.1104 6.64283 -2.05079 15.0867
384 1 -1.1104 6.64465 0.736485 17.8763
386 1 -1.1104 6.64275 -2.05076 17.8757
382 1 -1.1104 6.64461 0.736464 15.0865
378 1 -1.1104 1.06567 0.736526 20.6654
374 1 -1.1104 6.64648 3.52374 20.666
376 1 -1.1104 6.64278 -2.05073 20.6655
372 1 -1.1104 3.85696 3.52378 20.6656
370 1 -1.1104 3.85518 0.736519 20.6658
373 1 -1.1104 1.06387 -2.05076 20.6656
642 1 -1.1104 9.44702 20.2466 23.4565
591 2 2.2208 8.0513 18.8548 24.8509
349 2 2.2208 8.04949 16.0678 27.6402
674 2 2.2208 10.8408 18.8547 22.0614
557 2 2.2208 13.6173 -0.65575 16.4814
502 2 2.2208 13.6191 2.13155 24.8499
556 2 2.2208 13.621 4.91887 16.4818
535 2 2.2208 13.6192 2.13153 19.271
388 2 2.2208 10.8297 2.13152 16.4815
389 1 -1.1104 12.2217 -2.05082 17.8758
390 1 -1.1104 12.2253 3.52377 17.8762
391 1 -1.1104 12.2217 -2.05079 15.0867
392 1 -1.1104 12.2254 3.52379 15.0872
393 1 -1.1104 12.2236 0.736471 17.8764
394 2 2.2208 10.8279 -0.655759 19.2708
395 2 2.2208 10.8316 4.91879 19.2712
396 1 -1.1104 12.2235 0.7365 15.0865
397 1 -1.1104 9.43226 -2.05079 17.8761
398 1 -1.1104 9.43594 3.52372 17.8766
399 2 2.2208 8.04027 2.13152 19.271
400 1 -1.1104 9.43225 -2.05077 15.0863
401 1 -1.1104 9.43586 3.52373 15.0867
402 2 2.2208 8.03845 -0.655744 16.4813
403 2 2.2208 8.04208 4.91874 16.4818
404 1 -1.1104 9.43407 0.736468 17.876
405 1 -1.1104 9.43412 0.736479 15.0869
407 1 -1.1104 12.2217 -2.05082 20.6656
409 1 -1.1104 12.2235 0.736482 20.6654
569 1 -1.1104 9.43219 -2.05076 20.6652
406 1 -1.1104 12.2254 3.52378 20.666
561 1 -1.1104 9.4341 0.736491 20.6658
411 2 2.2208 5.25442 7.70596 16.482
412 2 2.2208 5.25813 13.2803 16.4823
413 1 -1.1104 1.07111 9.09829 17.8766
414 1 -1.1104 1.07116 9.09831 15.0875
415 1 -1.1104 1.06933 6.31105 17.8768
416 1 -1.1104 1.07301 11.8855 17.8771
417 2 2.2208 5.25626 10.4932 19.2716
418 1 -1.1104 1.06927 6.31105 15.0869
419 1 -1.1104 1.07297 11.8855 15.0872
420 1 -1.1104 3.86061 9.09817 17.877
421 2 2.2208 2.46496 7.70604 19.2714
422 2 2.2208 2.46864 13.2805 19.2717
423 1 -1.1104 3.86059 9.09816 15.0871
424 2 2.2208 2.4668 10.4932 16.4821
425 1 -1.1104 3.85875 6.31097 17.8764
426 1 -1.1104 3.86242 11.8853 17.8768
427 1 -1.1104 3.85877 6.31098 15.0873
428 1 -1.1104 3.86245 11.8853 15.0876
431 1 -1.1104 6.65196 11.8852 17.8772
442 1 -1.1104 6.64828 6.31093 17.8768
433 1 -1.1104 6.6501 9.0981 15.0875
430 1 -1.1104 6.65193 11.8852 15.0873
443 1 -1.1104 6.6482 6.31091 15.0869
437 1 -1.1104 3.86056 9.09822 20.6661
438 1 -1.1104 3.85882 6.31101 20.6662
439 1 -1.1104 6.6501 9.09813 20.6665
434 1 -1.1104 1.07116 9.09833 20.6664
432 1 -1.1104 3.86245 11.8854 20.6666
436 1 -1.1104 1.07295 11.8856 20.6662
470 1 -1.1104 6.6519 11.8853 20.6662
429 1 -1.1104 6.65006 9.0981 17.8766
445 2 2.2208 10.8334 7.70602 16.482
446 2 2.2208 10.8371 13.2805 16.4823
447 1 -1.1104 12.229 9.0983 17.8766
448 1 -1.1104 12.2291 9.09831 15.0876
449 1 -1.1104 12.2272 6.31105 17.8768
450 1 -1.1104 12.2309 11.8855 17.8772
451 2 2.2208 10.8353 10.4932 19.2716
452 1 -1.1104 12.2272 6.31105 15.087
453 1 -1.1104 12.2309 11.8856 15.0873
454 1 -1.1104 9.43961 9.09813 17.877
455 2 2.2208 8.04392 7.70596 19.2714
456 2 2.2208 8.04764 13.2803 19.2718
457 1 -1.1104 9.43956 9.09816 15.0871
458 2 2.2208 8.04576 10.4931 16.4822
459 1 -1.1104 9.43771 6.31093 17.8764
460 1 -1.1104 9.44143 11.8853 17.8767
461 1 -1.1104 9.43773 6.31096 15.0874
462 1 -1.1104 9.44144 11.8853 15.0877
469 1 -1.1104 12.2272 6.31107 20.6658
467 1 -1.1104 9.43778 6.31098 20.6662
466 1 -1.1104 9.43956 9.09817 20.666
567 2 2.2208 13.6247 10.4934 16.4821
471 1 -1.1104 12.2291 9.09833 20.6665
464 1 -1.1104 12.2309 11.8855 20.6662
532 2 2.2208 13.6229 7.70614 19.2714
562 1 -1.1104 12.2347 17.4601 26.2453
672 1 -1.1104 9.44329 14.6727 26.2452
473 2 2.2208 5.26177 18.8543 16.4824
474 1 -1.1104 1.07479 14.6728 17.8769
475 1 -1.1104 1.07824 20.2471 17.8771
476 1 -1.1104 1.07483 14.6727 15.0877
477 1 -1.1104 1.07824 20.247 15.0878
478 1 -1.1104 1.07661 17.4599 17.8773
479 2 2.2208 5.25997 16.0674 19.2719
480 2 2.2208 5.26345 21.6413 19.2721
481 1 -1.1104 1.07659 17.4599 15.0875
482 1 -1.1104 3.86431 14.6725 17.8772
483 1 -1.1104 3.86781 20.2464 17.8774
484 2 2.2208 2.47222 18.8548 19.2719
485 1 -1.1104 3.8643 14.6724 15.0874
486 1 -1.1104 3.86781 20.2464 15.0876
487 2 2.2208 2.47047 16.0676 16.4823
488 2 2.2208 2.47389 21.6416 16.4824
489 1 -1.1104 3.86607 17.4595 17.877
490 1 -1.1104 3.8661 17.4595 15.0878
499 1 -1.1104 6.65744 20.2461 15.0879
492 1 -1.1104 6.6538 14.6723 17.8769
491 1 -1.1104 6.65738 20.2461 17.8771
494 1 -1.1104 1.07838 20.2474 20.6669
506 1 -1.1104 6.65382 14.6724 20.6667
495 1 -1.1104 3.86611 17.4597 20.6668
500 1 -1.1104 3.86425 14.6726 20.6664
501 1 -1.1104 1.07656 17.4601 20.6665
504 1 -1.1104 6.65557 17.4595 20.6665
497 1 -1.1104 3.86775 20.2468 20.6667
498 1 -1.1104 1.07483 14.6729 20.6667
639 1 -1.1104 12.2366 20.2473 26.2459
588 2 2.2208 13.6303 18.8551 19.2719
496 1 -1.1104 6.65382 14.6723 15.0878
503 1 -1.1104 6.65565 17.4593 17.8774
493 1 -1.1104 6.65567 17.4593 15.0874
508 2 2.2208 10.8409 18.8547 16.4824
509 1 -1.1104 12.2328 14.6728 17.8768
510 1 -1.1104 12.2366 20.2471 17.8769
511 1 -1.1104 12.2328 14.6728 15.0878
512 1 -1.1104 12.2366 20.2474 15.0879
513 1 -1.1104 12.2347 17.4599 17.8773
514 2 2.2208 10.839 16.0676 19.2718
515 2 2.2208 10.8427 21.6416 19.272
516 1 -1.1104 12.2347 17.4601 15.0874
517 1 -1.1104 9.44334 14.6724 17.8773
518 1 -1.1104 9.44703 20.2463 17.8774
519 2 2.2208 8.0513 18.8543 19.2719
520 1 -1.1104 9.44334 14.6725 15.0874
521 1 -1.1104 9.4471 20.2466 15.0874
522 2 2.2208 8.04951 16.0674 16.4824
523 2 2.2208 8.05313 21.6411 16.4824
524 1 -1.1104 9.4452 17.4595 17.8769
525 1 -1.1104 9.44522 17.4596 15.0879
530 2 2.2208 13.6322 21.6426 16.4824
529 1 -1.1104 9.44518 17.4595 20.6669
465 1 -1.1104 12.2365 20.2469 20.6669
527 1 -1.1104 9.44694 20.2464 20.6665
528 1 -1.1104 9.44331 14.6724 20.6663
380 1 -1.1104 1.06756 3.5238 20.666
332 2 2.2208 13.6285 16.0681 27.6402
379 1 -1.1104 6.64458 0.736516 20.6654
371 1 -1.1104 3.85326 -2.05074 20.6651
536 2 2.2208 5.2508 2.13154 22.0604
537 1 -1.1104 1.06383 -2.05076 23.4546
538 1 -1.1104 1.0675 3.52383 23.4551
539 1 -1.1104 1.06388 -2.05071 26.2444
540 1 -1.1104 1.06754 3.52388 26.2449
541 1 -1.1104 1.06573 0.736527 23.4552
542 2 2.2208 5.24896 -0.655688 24.8496
543 1 -1.1104 1.06564 0.736575 26.2443
544 1 -1.1104 3.85332 -2.05075 23.455
545 1 -1.1104 3.857 3.52378 23.4554
546 2 2.2208 2.46134 2.13158 24.8499
547 1 -1.1104 3.85328 -2.0507 26.244
548 1 -1.1104 3.85693 3.52383 26.2445
549 2 2.2208 2.45951 -0.655712 22.0602
550 1 -1.1104 3.85512 0.73652 23.4548
551 1 -1.1104 3.85515 0.736556 26.2447
552 2 2.2208 5.25263 4.91882 24.8501
553 2 2.2208 2.46317 4.91883 22.0606
554 1 -1.1104 6.64272 -2.0507 23.4546
566 1 -1.1104 6.64646 3.5238 26.2449
565 1 -1.1104 6.64456 0.736549 26.2443
334 2 2.2208 5.25079 2.13159 27.6393
558 1 -1.1104 6.64462 0.73654 23.4552
335 2 2.2208 2.45949 -0.65568 27.6391
329 2 2.2208 2.46316 4.9189 27.6395
350 2 2.2208 8.0531 21.6422 27.6405
673 1 -1.1104 12.2328 14.6727 23.4558
339 2 2.2208 8.04211 4.91885 27.6395
564 1 -1.1104 6.64641 3.52377 23.455
568 1 -1.1104 6.6428 -2.05069 26.2444
330 2 2.2208 13.6173 -0.655713 27.6391
408 1 -1.1104 9.43589 3.52374 20.6656
338 2 2.2208 8.03841 -0.655655 27.6391
570 2 2.2208 10.8297 2.13152 22.0604
571 1 -1.1104 12.2216 -2.05078 23.4546
572 1 -1.1104 12.2253 3.52377 23.455
573 1 -1.1104 12.2217 -2.05075 26.2444
574 1 -1.1104 12.2254 3.52383 26.2449
575 1 -1.1104 12.2235 0.736486 23.4552
576 2 2.2208 10.8279 -0.655713 24.8496
577 1 -1.1104 12.2235 0.736539 26.2443
578 1 -1.1104 9.43224 -2.05074 23.455
579 1 -1.1104 9.43593 3.52375 23.4554
580 2 2.2208 8.04025 2.13157 24.8499
581 1 -1.1104 9.43219 -2.05069 26.244
582 1 -1.1104 9.43586 3.52381 26.2445
583 2 2.2208 8.03841 -0.655705 22.0602
584 1 -1.1104 9.43402 0.736506 23.4548
585 1 -1.1104 9.43407 0.736568 26.2447
586 2 2.2208 10.8316 4.91883 24.8501
587 2 2.2208 8.04211 4.91877 22.0606
534 2 2.2208 13.621 4.91884 22.0606
336 2 2.2208 10.8297 2.1316 27.6393
592 1 -1.1104 9.44513 17.4597 23.4559
343 2 2.2208 2.46685 10.4936 27.6399
342 2 2.2208 5.25447 7.70611 27.6397
435 1 -1.1104 1.0693 6.31105 20.6658
593 2 2.2208 5.25445 7.70601 22.0609
594 2 2.2208 5.25811 13.2804 22.0612
595 1 -1.1104 1.07113 9.09845 23.4555
596 1 -1.1104 1.07122 9.09856 26.2453
597 1 -1.1104 1.06938 6.31114 23.4557
598 1 -1.1104 1.07301 11.8858 23.456
599 2 2.2208 5.25629 10.4933 24.8505
600 1 -1.1104 1.06932 6.31121 26.2447
601 1 -1.1104 1.07299 11.8859 26.2451
602 1 -1.1104 3.86064 9.0983 23.4559
603 2 2.2208 2.465 7.70617 24.8503
604 2 2.2208 2.46864 13.2808 24.8506
605 1 -1.1104 3.86063 9.09838 26.2449
606 2 2.2208 2.46678 10.4934 22.061
607 1 -1.1104 3.85877 6.31104 23.4553
608 1 -1.1104 3.8624 11.8856 23.4556
609 1 -1.1104 3.85884 6.3111 26.2451
610 1 -1.1104 3.86249 11.8857 26.2454
619 1 -1.1104 6.65015 9.09829 26.2453
620 1 -1.1104 6.65196 11.8854 23.456
613 1 -1.1104 6.65192 11.8855 26.245
617 1 -1.1104 6.65008 9.09818 23.4555
341 2 2.2208 5.25813 13.2807 27.64
669 1 -1.1104 12.2365 20.2469 23.456
463 1 -1.1104 9.44148 11.8853 20.6666
468 1 -1.1104 6.64824 6.31095 20.6658
616 1 -1.1104 6.64826 6.31104 26.2447
618 1 -1.1104 6.64832 6.31099 23.4557
472 2 2.2208 13.6248 10.4934 22.061
444 2 2.2208 13.6266 13.2807 24.8506
621 1 -1.1104 9.43964 9.09821 23.4559
622 1 -1.1104 12.2309 11.8856 26.2451
623 1 -1.1104 12.2272 6.31109 26.2447
624 2 2.2208 10.8353 10.4933 24.8505
625 1 -1.1104 12.231 11.8855 23.4561
626 1 -1.1104 12.2273 6.31105 23.4557
627 1 -1.1104 12.2291 9.09836 26.2454
628 1 -1.1104 12.2291 9.0983 23.4555
629 1 -1.1104 9.44148 11.8855 26.2455
630 1 -1.1104 9.4378 6.31106 26.2451
631 1 -1.1104 9.44144 11.8854 23.4556
632 1 -1.1104 9.43774 6.31099 23.4553
633 2 2.2208 8.04578 10.4932 22.061
634 1 -1.1104 9.4396 9.09828 26.2449
635 2 2.2208 8.04764 13.2805 24.8506
636 2 2.2208 8.04395 7.70603 24.8503
637 2 2.2208 10.8334 7.70606 22.0609
638 2 2.2208 10.8371 13.2804 22.0612
328 2 2.2208 13.6248 10.4935 27.6399
345 2 2.2208 10.8372 13.2806 27.6401
533 2 2.2208 13.6229 7.70616 24.8503
326 2 2.2208 10.8334 7.70614 27.6398
347 2 2.2208 2.47049 16.0683 27.6401
505 1 -1.1104 6.65741 20.2464 20.667
348 2 2.2208 2.47407 21.6432 27.6404
667 1 -1.1104 6.65565 17.4597 23.4563
662 1 -1.1104 3.86789 20.2473 23.4564
661 1 -1.1104 3.8643 14.6728 23.4561
660 1 -1.1104 1.07848 20.2483 26.2457
659 1 -1.1104 1.07662 17.4608 26.2453
663 1 -1.1104 6.65375 14.6726 23.4558
644 1 -1.1104 6.65731 20.2468 23.4561
643 1 -1.1104 6.65558 17.46 26.2454
664 1 -1.1104 6.65382 14.6728 26.2456
668 1 -1.1104 6.65746 20.2472 26.2458
645 2 2.2208 2.47046 16.0679 22.0613
646 2 2.2208 2.47396 21.6423 22.0616
647 1 -1.1104 3.86603 17.46 23.456
648 1 -1.1104 1.07667 17.4605 23.4562
649 1 -1.1104 3.86425 14.673 26.2452
650 1 -1.1104 3.86614 17.4603 26.2457
651 2 2.2208 2.47227 18.8555 24.8509
652 1 -1.1104 3.86782 20.2477 26.2455
653 2 2.2208 5.26174 18.8547 22.0615
654 1 -1.1104 1.07477 14.6731 23.4558
655 1 -1.1104 1.07832 20.2479 23.4561
656 2 2.2208 5.25996 16.0678 24.8508
657 2 2.2208 5.2635 21.6422 24.8511
658 1 -1.1104 1.07487 14.6733 26.2455
346 2 2.2208 5.26179 18.8553 27.6403
327 2 2.2208 10.8409 18.8551 27.6403
340 2 2.2208 13.6323 21.6427 27.6405
641 1 -1.1104 9.44522 17.4599 26.2457
665 2 2.2208 10.8427 21.6419 24.8511
612 2 2.2208 8.05305 21.6414 22.0616
675 1 -1.1104 12.2328 14.6727 20.6667
526 1 -1.1104 12.2347 17.4599 20.6663
563 2 2.2208 10.839 16.0677 24.8508
611 1 -1.1104 12.2329 14.6729 26.2457
560 2 2.2208 13.6285 16.0679 22.0613
559 2 2.2208 13.6304 18.8552 24.8509
671 1 -1.1104 9.44695 20.247 26.2455
670 2 2.2208 8.04948 16.0675 22.0613
640 1 -1.1104 9.44336 14.6725 23.4562
666 1 -1.1104 12.2347 17.4599 23.4563
590 2 2.2208 13.6322 21.6421 22.0615
369 2 2.2208 13.6266 13.2807 19.2717
385 2 2.2208 13.6173 -0.655778 22.0602
507 2 2.2208 13.6285 16.068 16.4823
331 2 2.2208 13.621 4.91891 27.6395
344 2 2.2208 8.04579 10.4933 27.6399
440 2 2.2208 13.6155 -3.44304 24.8494
410 2 2.2208 8.03657 -3.44293 24.8494
337 2 2.2208 10.826 -3.44294 27.6388
375 2 2.2208 8.03659 -3.44299 19.2705
589 2 2.2208 2.45767 -3.44298 24.8494
441 2 2.2208 2.45765 -3.44299 19.2705
377 2 2.2208 5.24714 -3.44301 16.4811
555 2 2.2208 13.6155 -3.4431 19.2705
531 2 2.2208 10.8261 -3.44304 16.4811
615 2 2.2208 5.24711 -3.44296 22.0599
333 2 2.2208 5.24712 -3.44292 27.6388
614 2 2.2208 10.826 -3.44301 22.06
701 2 2.2208 5.26527 24.4296 5.32457
702 2 2.2208 5.26878 30.0041 5.32433
703 1 -1.1104 1.08185 25.8243 1.14058
704 1 -1.1104 1.0817 25.8239 3.92985
705 1 -1.1104 1.08021 23.0363 1.14072
706 1 -1.1104 1.08366 28.6125 1.14078
707 2 2.2208 5.26705 27.2175 2.5355
708 1 -1.1104 1.08014 23.0361 3.92975
709 1 -1.1104 1.08356 28.612 3.92964
710 1 -1.1104 3.87132 25.823 1.1408
711 2 2.2208 2.47579 24.431 2.53533
712 2 2.2208 2.47941 30.0071 2.53543
713 1 -1.1104 3.8713 25.8225 3.92977
714 2 2.2208 2.47742 27.2181 5.32438
715 1 -1.1104 3.86957 23.0354 1.14054
716 1 -1.1104 3.87298 28.6108 1.14079
717 1 -1.1104 3.86953 23.0351 3.92999
718 1 -1.1104 3.87282 28.61 3.92979
722 1 -1.1104 6.66272 28.6093 1.14105
732 1 -1.1104 6.66277 28.6084 3.9298
720 1 -1.1104 6.6592 23.0346 1.14086
719 1 -1.1104 6.65921 23.0344 3.9298
721 1 -1.1104 1.08306 28.6107 6.71882
725 1 -1.1104 3.87294 28.6086 6.71889
727 1 -1.1104 6.66249 28.6072 6.71922
729 1 -1.1104 1.07994 23.0355 6.71924
730 1 -1.1104 3.86961 23.0345 6.71908
724 1 -1.1104 6.66088 25.8219 1.14072
728 1 -1.1104 6.65916 23.0339 6.71944
726 1 -1.1104 3.87103 25.8216 6.71915
886 1 -1.1104 1.08172 25.8231 6.71897
883 1 -1.1104 6.66099 25.8206 6.71906
723 1 -1.1104 6.66089 25.8215 3.93011
734 2 2.2208 10.8446 24.4296 5.3249
735 2 2.2208 10.8485 30.0039 5.32525
736 1 -1.1104 12.2403 25.8219 1.14079
737 1 -1.1104 12.2406 25.822 3.93069
738 1 -1.1104 12.2386 23.0347 1.14113
739 1 -1.1104 12.2426 28.609 1.14167
740 2 2.2208 10.8465 27.2169 2.53592
741 1 -1.1104 12.2385 23.0348 3.92992
742 1 -1.1104 12.2425 28.609 3.93024
743 1 -1.1104 9.45073 25.8215 1.14118
744 2 2.2208 8.05493 24.4295 2.53552
745 2 2.2208 8.05858 30.0041 2.53594
746 1 -1.1104 9.45076 25.8212 3.92994
747 2 2.2208 8.05676 27.2162 5.32472
748 1 -1.1104 9.4488 23.0344 1.14059
749 1 -1.1104 9.45246 28.6085 1.14098
750 1 -1.1104 9.44888 23.0343 3.93032
751 1 -1.1104 9.45264 28.6082 3.93049
755 2 2.2208 13.6342 24.4303 2.53569
733 2 2.2208 13.6382 30.0052 2.53647
757 1 -1.1104 9.45072 25.8208 6.71975
752 1 -1.1104 9.45272 28.607 6.71919
756 1 -1.1104 12.2404 25.822 6.71941
913 1 -1.1104 12.2425 28.609 6.72035
753 1 -1.1104 9.44896 23.0339 6.71919
754 2 2.2208 13.6362 27.218 5.32518
759 2 2.2208 5.27258 35.5794 5.32364
760 1 -1.1104 1.0855 31.4013 1.14068
761 1 -1.1104 1.09019 36.9813 1.14017
762 1 -1.1104 1.08506 31.4005 3.92949
763 1 -1.1104 1.0886 36.9793 3.92822
764 1 -1.1104 1.08766 34.1907 1.1407
765 2 2.2208 5.27083 32.7934 2.53573
766 2 2.2208 5.27518 38.3715 2.53432
767 1 -1.1104 1.08727 34.1896 3.92913
768 1 -1.1104 3.87486 31.399 1.14086
769 1 -1.1104 3.87876 36.9773 1.14017
770 2 2.2208 2.48386 35.5853 2.53521
771 1 -1.1104 3.87478 31.3978 3.92959
772 1 -1.1104 3.87832 36.9743 3.92823
773 2 2.2208 2.48119 32.7943 5.32389
774 2 2.2208 2.48595 38.3725 5.32186
775 1 -1.1104 3.8768 34.1877 1.14079
776 1 -1.1104 3.87603 34.1858 3.92906
780 1 -1.1104 6.66711 36.9691 3.92831
792 1 -1.1104 6.66446 31.3967 1.14107
779 1 -1.1104 6.66651 34.1822 3.92935
781 1 -1.1104 6.66872 36.9734 1.14045
791 1 -1.1104 6.66642 34.1849 1.14115
783 1 -1.1104 3.87409 31.3956 6.71854
788 1 -1.1104 3.8769 36.9696 6.71684
782 1 -1.1104 1.08517 31.3986 6.71849
778 1 -1.1104 3.87631 34.1825 6.71817
787 1 -1.1104 1.08899 36.9755 6.71704
1032 2 2.2208 13.6459 41.1579 8.10413
777 1 -1.1104 6.66431 31.3954 3.9298
793 2 2.2208 10.8523 35.5782 5.32549
794 1 -1.1104 12.2443 31.396 1.14147
795 1 -1.1104 12.2489 36.9704 1.14223
796 1 -1.1104 12.2449 31.396 3.93131
797 1 -1.1104 12.2496 36.9688 3.93076
798 1 -1.1104 12.247 34.1833 1.14242