ITEM: TIMESTEP
448
ITEM: NUMBER OF ATOMS
17752
ITEM: BOX BOUNDS pp pp pp
-2.7717828229332220e-01 2.7617178282293317e+01
-3.4472205766305355e+00 3.3152722057663055e+02
-2.7717827830221448e-01 2.7617178278302212e+01
ITEM: ATOMS id type q x y z
1 2 2.2208 5.24709 2.13622 5.32935
2 1 -1.1104 1.05998 -2.04482 1.14478
3 1 -1.1104 1.06387 3.52833 1.14507
4 1 -1.1104 1.06002 -2.04482 3.93464
5 1 -1.1104 1.06385 3.5283 3.9349
6 1 -1.1104 1.06192 0.741749 1.14535
7 2 2.2208 5.24514 -0.650244 2.53981
8 1 -1.1104 1.06188 0.741734 3.93437
9 1 -1.1104 3.84947 -2.04481 1.14523
10 1 -1.1104 3.85334 3.52826 1.14549
11 2 2.2208 2.45761 2.1363 2.53994
12 1 -1.1104 3.84945 -2.04482 3.93423
13 1 -1.1104 3.85329 3.52824 3.93448
14 2 2.2208 2.45572 -0.650242 5.32923
15 2 2.2208 2.45955 4.92279 5.32945
16 1 -1.1104 3.85135 0.74172 1.14495
17 1 -1.1104 3.85136 0.7417 3.93479
18 2 2.2208 5.24904 4.92278 2.54006
32 1 -1.1104 6.63889 -2.04483 1.1448
211 2 2.2208 10.8377 18.8542 10.9084
175 2 2.2208 13.6193 7.70912 8.1189
20 1 -1.1104 1.06195 0.741691 6.72421
29 1 -1.1104 3.8533 3.52815 6.72432
25 1 -1.1104 6.64279 3.52812 6.72392
23 1 -1.1104 6.64085 0.741681 1.14538
22 1 -1.1104 6.6428 3.52818 3.9349
179 1 -1.1104 3.8514 0.741667 6.72381
30 1 -1.1104 1.06383 3.52822 6.72391
28 1 -1.1104 6.64091 0.741659 6.72424
54 2 2.2208 2.47106 21.643 -0.248629
24 1 -1.1104 6.63895 -2.04481 3.93466
19 1 -1.1104 6.64279 3.52821 1.14508
33 1 -1.1104 6.64084 0.741666 3.93439
52 2 2.2208 13.6174 4.92272 5.32941
34 2 2.2208 10.8261 2.13618 5.32934
35 1 -1.1104 12.2178 -2.0449 1.14484
36 1 -1.1104 12.2217 3.52816 1.14502
37 1 -1.1104 12.2179 -2.0449 3.93468
38 1 -1.1104 12.2217 3.52812 3.93489
39 1 -1.1104 12.2198 0.741643 1.14538
40 2 2.2208 10.8241 -0.650303 2.53981
41 1 -1.1104 12.2198 0.741579 3.93436
42 1 -1.1104 9.42838 -2.04485 1.14523
43 1 -1.1104 9.43228 3.52815 1.14548
44 2 2.2208 8.03655 2.13622 2.53995
45 1 -1.1104 9.4284 -2.04481 3.93425
46 1 -1.1104 9.43226 3.52813 3.93446
47 2 2.2208 8.03466 -0.650258 5.32924
48 1 -1.1104 9.43029 0.741632 1.14495
49 1 -1.1104 9.43034 0.741657 3.93481
50 2 2.2208 8.03849 4.92266 5.32945
51 2 2.2208 10.828 4.92269 2.54
53 2 2.2208 13.6136 -0.650315 5.32923
58 2 2.2208 13.6155 2.13622 2.53991
207 1 -1.1104 12.2179 -2.04486 6.72369
215 1 -1.1104 9.43227 3.52808 6.72431
214 1 -1.1104 12.2199 0.741617 6.72421
55 1 -1.1104 9.42848 -2.04482 6.7241
57 1 -1.1104 12.2217 3.52811 6.72389
328 2 2.2208 8.05007 21.6416 -0.248658
59 2 2.2208 5.25092 7.70921 5.32954
60 2 2.2208 5.25479 13.2822 5.32964
61 1 -1.1104 1.0678 9.10155 1.14525
62 1 -1.1104 1.06774 9.10146 3.93503
63 1 -1.1104 1.06587 6.31493 1.14558
64 1 -1.1104 1.06971 11.8882 1.14569
65 2 2.2208 5.2529 10.4958 2.54022
66 1 -1.1104 1.0658 6.31485 3.93458
67 1 -1.1104 1.0697 11.8881 3.93469
68 1 -1.1104 3.85725 9.10136 1.14568
69 2 2.2208 2.46153 7.70943 2.54012
70 2 2.2208 2.46539 13.2827 2.54024
71 1 -1.1104 3.85719 9.1013 3.93469
72 2 2.2208 2.4634 10.4959 5.32959
73 1 -1.1104 3.8553 6.31481 1.14518
74 1 -1.1104 3.85914 11.8879 1.14538
75 1 -1.1104 3.85524 6.31476 3.935
76 1 -1.1104 3.8591 11.8879 3.93511
77 1 -1.1104 6.64858 11.8876 3.93475
92 1 -1.1104 6.64666 9.10111 3.93509
81 1 -1.1104 6.6467 9.10119 1.1453
78 1 -1.1104 6.64473 6.31466 3.93459
85 1 -1.1104 3.8571 9.10113 6.72447
90 1 -1.1104 6.64861 11.8877 1.14577
82 1 -1.1104 6.6448 6.31468 1.1456
87 1 -1.1104 6.64658 9.10102 6.72409
79 1 -1.1104 1.06769 9.10133 6.72405
86 1 -1.1104 3.85518 6.31464 6.724
84 1 -1.1104 1.06574 6.31475 6.72441
235 1 -1.1104 1.06961 11.8879 6.72446
80 1 -1.1104 3.85907 11.8876 6.72413
114 2 2.2208 13.6234 13.2823 2.54017
93 2 2.2208 10.8299 7.70913 5.32952
94 2 2.2208 10.8338 13.282 5.3296
95 1 -1.1104 12.2257 9.10117 1.14521
96 1 -1.1104 12.2256 9.10112 3.93505
97 1 -1.1104 12.2238 6.31465 1.14557
98 1 -1.1104 12.2277 11.8877 1.14573
99 2 2.2208 10.8319 10.4957 2.54018
100 1 -1.1104 12.2237 6.31465 3.93453
101 1 -1.1104 12.2276 11.8876 3.93462
102 1 -1.1104 9.43623 9.10111 1.1457
103 2 2.2208 8.04048 7.70921 2.54014
104 2 2.2208 8.04431 13.2822 2.54025
105 1 -1.1104 9.43616 9.10107 3.93467
106 2 2.2208 8.04233 10.4956 5.32962
107 1 -1.1104 9.43427 6.31465 1.14516
108 1 -1.1104 9.43811 11.8876 1.14535
109 1 -1.1104 9.43424 6.31459 3.93499
110 1 -1.1104 9.43807 11.8875 3.93514
267 1 -1.1104 9.43415 6.31454 6.724
111 2 2.2208 13.6194 7.70929 2.54007
91 2 2.2208 13.6213 10.4957 5.32952
89 1 -1.1104 6.64465 6.31456 6.72442
266 1 -1.1104 12.2275 11.8874 6.72449
113 1 -1.1104 12.2236 6.31455 6.72439
116 1 -1.1104 9.43605 9.10094 6.7245
115 1 -1.1104 12.2256 9.10101 6.72401
288 2 2.2208 10.8397 21.6407 8.11906
117 2 2.2208 5.25865 18.8552 5.32963
118 1 -1.1104 1.07163 14.675 1.14538
119 1 -1.1104 1.07543 20.2488 1.14571
120 1 -1.1104 1.07162 14.6748 3.93507
121 1 -1.1104 1.07538 20.2485 3.93523
122 1 -1.1104 1.07358 17.4618 1.14585
123 2 2.2208 5.25675 16.0689 2.54026
124 2 2.2208 5.26054 21.6422 2.54052
125 1 -1.1104 1.07357 17.4616 3.9348
126 1 -1.1104 3.86105 14.6746 1.14577
127 1 -1.1104 3.86484 20.2481 1.14594
128 2 2.2208 2.46922 18.8561 2.54041
129 1 -1.1104 3.86105 14.6744 3.93475
130 1 -1.1104 3.86483 20.2478 3.93489
131 2 2.2208 2.4673 16.0691 5.32963
132 2 2.2208 2.47108 21.6425 5.32975
133 1 -1.1104 3.86294 17.4613 1.14551
134 1 -1.1104 3.86293 17.4611 3.93509
144 1 -1.1104 6.65048 14.6741 3.93511
135 1 -1.1104 6.65432 20.247 3.93516
151 1 -1.1104 6.65052 14.6742 1.1454
143 1 -1.1104 6.65247 17.4607 1.14579
138 1 -1.1104 3.86298 17.4607 6.72414
141 1 -1.1104 3.86096 14.6742 6.72449
146 1 -1.1104 1.07543 20.2479 6.72426
137 1 -1.1104 1.07162 14.6745 6.7241
178 1 -1.1104 12.2335 20.2463 9.51406
142 1 -1.1104 6.65433 20.2473 1.14563
145 1 -1.1104 6.65249 17.4605 3.93473
152 2 2.2208 10.8378 18.8549 5.32961
153 1 -1.1104 12.2296 14.6741 1.14529
154 1 -1.1104 12.2335 20.2471 1.14552
155 1 -1.1104 12.2296 14.6741 3.93512
156 1 -1.1104 12.2336 20.247 3.93528
157 1 -1.1104 12.2316 17.4606 1.14584
158 2 2.2208 10.8358 16.0686 2.54024
159 2 2.2208 10.8397 21.6416 2.54053
160 1 -1.1104 12.2316 17.4605 3.93465
161 1 -1.1104 9.44007 14.674 1.14578
162 1 -1.1104 9.44399 20.247 1.14597
163 2 2.2208 8.04822 18.8551 2.54034
164 1 -1.1104 9.44007 14.674 3.9347
165 1 -1.1104 9.44399 20.2468 3.93477
166 2 2.2208 8.04626 16.0685 5.32959
167 2 2.2208 8.05011 21.6412 5.32969
168 1 -1.1104 9.44202 17.4605 1.14539
169 1 -1.1104 9.44204 17.4604 3.93511
326 1 -1.1104 12.2336 20.2466 6.72408
170 1 -1.1104 12.2296 14.6739 6.724
149 1 -1.1104 9.44209 17.4601 6.72403
319 1 -1.1104 9.44393 20.2463 6.72452
31 2 2.2208 13.6294 21.6417 5.32979
150 2 2.2208 13.6274 18.8554 2.54033
148 2 2.2208 13.6253 16.0687 5.32956
174 1 -1.1104 12.2316 17.4603 6.72451
27 1 -1.1104 3.84952 -2.04482 6.7241
347 2 2.2208 5.25866 18.8555 -0.248875
56 1 -1.1104 6.63897 -2.04483 6.72367
176 1 -1.1104 1.06004 -2.04487 6.72366
180 2 2.2208 5.24712 2.13612 10.9082
181 1 -1.1104 1.06009 -2.0449 12.3026
182 1 -1.1104 1.06387 3.52807 12.3028
183 1 -1.1104 1.0601 -2.04487 9.51354
184 1 -1.1104 1.06385 3.52813 9.51376
185 1 -1.1104 1.06201 0.741595 12.3031
186 2 2.2208 5.24521 -0.650269 8.11868
187 1 -1.1104 1.06198 0.741629 9.51323
188 1 -1.1104 3.84956 -2.0449 12.303
189 1 -1.1104 3.85334 3.52801 12.3032
190 2 2.2208 2.45765 2.13622 8.11879
191 1 -1.1104 3.84954 -2.04485 9.5131
192 1 -1.1104 3.85332 3.52808 9.51337
193 2 2.2208 2.45578 -0.650328 10.9081
194 2 2.2208 2.45953 4.92263 10.9083
195 1 -1.1104 3.85145 0.741551 12.3027
196 1 -1.1104 3.85145 0.741619 9.51366
197 2 2.2208 5.24899 4.92262 8.1189
200 1 -1.1104 6.64282 3.52796 12.3028
203 1 -1.1104 6.64283 3.52804 9.51377
202 1 -1.1104 6.639 -2.04488 12.3026
199 1 -1.1104 6.64095 0.741542 12.3031
348 2 2.2208 2.46733 16.0694 -0.249021
83 2 2.2208 13.6292 21.641 10.9085
26 2 2.2208 13.6136 -0.650387 10.9081
201 1 -1.1104 6.63902 -2.04484 9.51353
198 1 -1.1104 6.64093 0.741601 9.51325
213 2 2.2208 13.6174 4.92257 10.9083
208 1 -1.1104 9.43038 0.741629 6.72382
216 2 2.2208 10.8261 2.13609 10.9082
217 1 -1.1104 12.2179 -2.04495 12.3026
218 1 -1.1104 12.2218 3.52797 12.3028
219 1 -1.1104 12.218 -2.04491 9.51356
220 1 -1.1104 12.2217 3.52801 9.51374
221 1 -1.1104 12.2199 0.741522 12.3031
222 2 2.2208 10.8242 -0.650331 8.11869
223 1 -1.1104 12.2199 0.741551 9.51323
224 1 -1.1104 9.42848 -2.04491 12.303
225 1 -1.1104 9.4323 3.52795 12.3032
226 2 2.2208 8.03659 2.13617 8.11879
227 1 -1.1104 9.42847 -2.04486 9.51312
228 1 -1.1104 9.43227 3.52802 9.51334
229 2 2.2208 8.03471 -0.650338 10.9081
230 2 2.2208 8.03848 4.92253 10.9083
231 1 -1.1104 9.4304 0.741531 12.3027
232 1 -1.1104 9.43041 0.741592 9.51364
233 2 2.2208 10.8279 4.92259 8.11887
210 2 2.2208 13.6155 2.13616 8.11876
21 1 -1.1104 12.2315 17.4598 12.3034
236 2 2.2208 5.25088 7.70898 10.9084
237 2 2.2208 5.25472 13.2817 10.9085
238 1 -1.1104 1.06763 9.101 12.303
239 1 -1.1104 1.0676 9.10113 9.51388
240 1 -1.1104 1.06575 6.31456 12.3033
241 1 -1.1104 1.06951 11.8875 12.3034
242 2 2.2208 5.2528 10.4955 8.11903
243 1 -1.1104 1.06572 6.31461 9.51345
244 1 -1.1104 1.06957 11.8876 9.51351
245 1 -1.1104 3.85708 9.10085 12.3034
246 2 2.2208 2.46141 7.70921 8.11896
247 2 2.2208 2.46529 13.2822 8.11902
248 1 -1.1104 3.85707 9.10098 9.51352
249 2 2.2208 2.4633 10.4955 10.9084
250 1 -1.1104 3.8552 6.31445 12.3029
251 1 -1.1104 3.85898 11.8872 12.303
252 1 -1.1104 3.85517 6.31454 9.51385
253 1 -1.1104 3.85898 11.8874 9.51394
258 1 -1.1104 6.64657 9.10072 12.303
265 1 -1.1104 6.64846 11.887 12.3034
256 1 -1.1104 6.64653 9.10085 9.51393
254 1 -1.1104 6.64464 6.31445 9.51345
255 1 -1.1104 6.64468 6.31436 12.3033
259 1 -1.1104 6.64851 11.8872 9.51356
206 1 -1.1104 9.44002 14.6735 9.51348
209 2 2.2208 8.05011 21.6399 10.9085
291 1 -1.1104 12.2316 17.46 9.51342
264 2 2.2208 13.6233 13.282 8.11893
320 1 -1.1104 12.2295 14.6737 9.5139
317 1 -1.1104 9.44391 20.2453 12.3035
177 1 -1.1104 9.44403 20.2458 9.51348
263 2 2.2208 13.6212 10.4955 10.9084
88 1 -1.1104 6.6485 11.8875 6.72453
112 1 -1.1104 9.43805 11.8874 6.72408
268 1 -1.1104 9.43798 11.8872 9.51396
269 1 -1.1104 9.43414 6.31445 9.51386
270 1 -1.1104 9.43801 11.887 12.303
271 1 -1.1104 9.43417 6.31434 12.3029
272 2 2.2208 8.04228 10.4953 10.9085
273 1 -1.1104 9.43603 9.10082 9.5135
274 2 2.2208 8.04424 13.2818 8.11903
275 2 2.2208 8.04035 7.70904 8.11897
276 2 2.2208 10.8298 7.70896 10.9084
277 2 2.2208 10.8337 13.2817 10.9084
278 1 -1.1104 12.2256 9.10081 12.3029
279 1 -1.1104 12.2255 9.10088 9.51388
280 1 -1.1104 12.2236 6.3144 12.3033
281 1 -1.1104 12.2275 11.8872 12.3034
282 2 2.2208 10.8318 10.4955 8.11899
283 1 -1.1104 12.2236 6.31448 9.51339
284 1 -1.1104 12.2275 11.8873 9.51345
285 1 -1.1104 9.43607 9.10069 12.3034
289 1 -1.1104 12.2295 14.6735 12.3028
321 2 2.2208 8.0482 18.8544 8.11898
324 1 -1.1104 9.4399 14.6732 12.3034
318 1 -1.1104 6.65244 17.4597 9.51352
313 1 -1.1104 6.65431 20.2452 12.3031
140 1 -1.1104 1.07347 17.4612 6.72448
139 1 -1.1104 3.86473 20.2471 6.72449
136 1 -1.1104 6.65241 17.4602 6.72445
171 1 -1.1104 6.65441 20.2465 6.72412
147 1 -1.1104 6.65052 14.6739 6.72411
315 1 -1.1104 6.65227 17.4593 12.3034
292 1 -1.1104 6.65041 14.6735 9.51396
312 1 -1.1104 6.65428 20.2457 9.5139
311 1 -1.1104 6.6504 14.6733 12.3031
293 1 -1.1104 3.86096 14.6738 9.51358
294 1 -1.1104 3.86281 17.4601 9.51391
295 1 -1.1104 1.07326 17.4603 12.3034
296 2 2.2208 2.46712 16.0684 10.9085
297 2 2.2208 2.47093 21.6409 10.9086
298 1 -1.1104 3.86277 17.4597 12.3031
299 1 -1.1104 3.86462 20.2458 12.3035
300 1 -1.1104 3.86082 14.6735 12.3034
301 1 -1.1104 1.0752 20.2471 9.51398
302 1 -1.1104 1.07345 17.4607 9.51358
303 2 2.2208 5.26052 21.6409 8.11903
304 1 -1.1104 1.07145 14.6741 9.51388
305 2 2.2208 5.2567 16.0684 8.11901
306 1 -1.1104 1.0752 20.2466 12.3033
307 1 -1.1104 1.07141 14.6739 12.303
308 2 2.2208 5.25854 18.8541 10.9085
309 1 -1.1104 3.86481 20.2463 9.51365
310 2 2.2208 2.46914 18.8552 8.11905
323 1 -1.1104 9.44195 17.4596 9.51391
172 1 -1.1104 9.44193 17.4593 12.3029
325 2 2.2208 10.8358 16.0682 8.11894
290 2 2.2208 8.04615 16.0678 10.9085
173 1 -1.1104 9.44 14.6737 6.72451
322 1 -1.1104 12.2335 20.2462 12.303
316 2 2.2208 13.6252 16.0683 10.9084
314 2 2.2208 13.6273 18.855 8.119
327 2 2.2208 13.6293 21.6418 -0.248719
330 2 2.2208 13.6254 16.0688 -0.249122
339 2 2.2208 2.45962 4.92287 -0.249358
340 2 2.2208 8.03855 4.92271 -0.249373
334 2 2.2208 5.24711 2.13627 -0.249476
338 2 2.2208 10.826 2.1362 -0.249499
336 2 2.2208 13.6175 4.92273 -0.249422
341 2 2.2208 2.46349 10.496 -0.249184
350 2 2.2208 10.8378 18.855 -0.248946
342 2 2.2208 5.25102 7.70931 -0.249243
349 2 2.2208 8.04628 16.0686 -0.249065
331 2 2.2208 5.25484 13.2824 -0.249099
345 2 2.2208 13.6214 10.4958 -0.24926
344 2 2.2208 10.8339 13.2821 -0.24914
343 2 2.2208 8.04245 10.4957 -0.249166
346 2 2.2208 10.83 7.70919 -0.249292
335 2 2.2208 13.6135 -0.650297 -0.249598
337 2 2.2208 8.03459 -0.650285 -0.249624
332 2 2.2208 2.4557 -0.650246 -0.249635
287 2 2.2208 8.03278 -3.43676 8.11854
205 2 2.2208 2.45378 -3.43678 2.53966
262 2 2.2208 5.24326 -3.43675 5.32909
204 2 2.2208 10.8222 -3.43677 5.32912
260 2 2.2208 8.03269 -3.43677 2.53967
234 2 2.2208 5.24331 -3.43678 10.908
257 2 2.2208 2.45384 -3.4368 8.11854
261 2 2.2208 13.6117 -3.43684 8.11857
286 2 2.2208 10.8222 -3.43682 10.908
329 2 2.2208 5.2432 -3.43681 -0.249753
333 2 2.2208 10.8221 -3.43684 -0.249728
212 2 2.2208 13.6116 -3.43685 2.5397
351 2 2.2208 5.24713 2.13607 16.4872
352 1 -1.1104 1.06004 -2.04498 17.8815
353 1 -1.1104 1.06387 3.52807 17.8817
354 1 -1.1104 1.06008 -2.04495 15.0924
355 1 -1.1104 1.06391 3.52804 15.0927
356 1 -1.1104 1.06198 0.741568 17.882
357 2 2.2208 5.24519 -0.650367 19.2765
358 1 -1.1104 1.06196 0.741556 15.0922
359 1 -1.1104 3.84951 -2.04493 17.8819
360 1 -1.1104 3.85338 3.52802 17.8822
361 2 2.2208 2.45767 2.13616 19.2766
362 1 -1.1104 3.84951 -2.0449 15.092
363 1 -1.1104 3.85334 3.52799 15.0923
364 2 2.2208 2.45575 -0.650362 16.487
365 1 -1.1104 3.85141 0.74156 17.8816
366 1 -1.1104 3.85145 0.741549 15.0926
367 2 2.2208 2.45959 4.92257 16.4873
368 2 2.2208 5.24905 4.92259 19.2767
369 1 -1.1104 6.6409 0.741524 15.0921
370 1 -1.1104 6.64283 3.52793 15.0927
385 1 -1.1104 6.63894 -2.04492 17.8814
386 1 -1.1104 6.63899 -2.0449 15.0924
696 2 2.2208 5.26037 21.6397 13.6981
461 2 2.2208 13.6233 13.2818 19.2768
531 1 -1.1104 6.64085 0.741566 20.671
527 1 -1.1104 3.84948 -2.04495 20.6709
374 1 -1.1104 3.85333 3.52811 20.6712
373 1 -1.1104 3.85144 0.741609 20.6714
530 1 -1.1104 1.06196 0.741604 20.671
379 1 -1.1104 1.06008 -2.04496 20.6713
376 1 -1.1104 6.64092 0.741524 17.882
371 1 -1.1104 6.6428 3.52799 17.8817
388 2 2.2208 10.8261 2.13604 16.4871
389 1 -1.1104 12.2179 -2.04498 17.8815
390 1 -1.1104 12.2217 3.52796 17.8817
391 1 -1.1104 12.2179 -2.04497 15.0924
392 1 -1.1104 12.2218 3.52795 15.0927
393 1 -1.1104 12.2199 0.741478 17.882
394 2 2.2208 10.8241 -0.650395 19.2764
395 2 2.2208 10.828 4.92251 19.2767
396 1 -1.1104 12.2199 0.7415 15.0921
397 1 -1.1104 9.42843 -2.04495 17.8819
398 1 -1.1104 9.43232 3.52792 17.8821
399 2 2.2208 8.03659 2.13608 19.2766
400 1 -1.1104 9.42844 -2.04494 15.092
401 1 -1.1104 9.4323 3.5279 15.0922
402 2 2.2208 8.03468 -0.650396 16.487
403 1 -1.1104 9.43036 0.741494 17.8816
404 1 -1.1104 9.43042 0.741482 15.0926
405 2 2.2208 8.03852 4.92247 16.4872
412 1 -1.1104 9.42837 -2.04493 20.6709
408 2 2.2208 10.8358 16.0683 24.8559
589 1 -1.1104 12.2315 17.4604 26.2504
555 2 2.2208 13.6155 2.13607 19.2765
413 1 -1.1104 9.43036 0.741527 20.6714
411 1 -1.1104 12.2179 -2.04497 20.6713
406 2 2.2208 13.6174 4.92252 16.4872
414 2 2.2208 13.6136 -0.650447 16.487
525 1 -1.1104 9.44206 17.4603 26.2509
382 1 -1.1104 9.44191 17.4599 23.4611
671 1 -1.1104 6.65239 17.4606 26.2505
416 2 2.2208 5.25096 7.70892 16.4874
417 2 2.2208 5.25471 13.2816 16.4875
418 1 -1.1104 1.06771 9.10104 17.8819
419 1 -1.1104 1.0677 9.10099 15.0928
420 1 -1.1104 1.06584 6.31457 17.8823
421 1 -1.1104 1.06964 11.8875 17.8823
422 2 2.2208 5.25289 10.4954 19.2769
423 1 -1.1104 1.06579 6.31451 15.0924
424 1 -1.1104 1.06954 11.8874 15.0925
425 1 -1.1104 3.85719 9.10086 17.8824
426 2 2.2208 2.46152 7.70912 19.2768
427 2 2.2208 2.46528 13.282 19.277
428 1 -1.1104 3.85712 9.1008 15.0925
429 2 2.2208 2.46338 10.4955 16.4874
430 1 -1.1104 3.85526 6.31446 17.8819
431 1 -1.1104 3.85902 11.8872 17.882
432 1 -1.1104 3.85527 6.31442 15.0928
433 1 -1.1104 3.85899 11.8872 15.0929
438 1 -1.1104 6.64664 9.10075 17.882
437 1 -1.1104 6.64472 6.31432 15.0924
441 1 -1.1104 6.64663 9.10068 15.0929
435 1 -1.1104 6.64477 6.3144 17.8823
585 1 -1.1104 1.06781 9.10123 20.6718
587 1 -1.1104 3.85718 9.10102 20.6714
588 1 -1.1104 1.06583 6.31468 20.6713
590 1 -1.1104 3.85533 6.31457 20.6717
586 1 -1.1104 6.64672 9.10086 20.6718
619 1 -1.1104 9.44382 20.2467 26.2507
434 1 -1.1104 6.64856 11.887 17.8824
442 1 -1.1104 6.64849 11.8869 15.0925
614 1 -1.1104 6.64475 6.31446 20.6713
443 2 2.2208 10.8299 7.70887 16.4873
444 2 2.2208 10.8337 13.2815 16.4874
445 1 -1.1104 12.2256 9.10078 17.8818
446 1 -1.1104 12.2256 9.10075 15.0928
447 1 -1.1104 12.2237 6.31438 17.8822
448 1 -1.1104 12.2276 11.8871 17.8823
449 2 2.2208 10.8319 10.4953 19.2768
450 1 -1.1104 12.2237 6.31438 15.0923
451 1 -1.1104 12.2275 11.8871 15.0924
452 1 -1.1104 9.43618 9.10068 17.8823
453 2 2.2208 8.04047 7.70893 19.2768
454 2 2.2208 8.04429 13.2815 19.277
455 1 -1.1104 9.43611 9.10065 15.0924
456 2 2.2208 8.04235 10.4952 16.4874
457 1 -1.1104 9.4342 6.31433 17.8818
458 1 -1.1104 9.43806 11.887 17.882
459 1 -1.1104 9.43422 6.31429 15.0928
460 1 -1.1104 9.43802 11.8869 15.0929
387 2 2.2208 13.6213 10.4954 16.4873
464 1 -1.1104 12.2276 11.8872 20.6713
465 1 -1.1104 9.43814 11.8871 20.6719
462 1 -1.1104 12.2257 9.10084 20.6717
466 1 -1.1104 9.43426 6.3144 20.6717
467 1 -1.1104 9.43618 9.1008 20.6714
673 1 -1.1104 9.4401 14.6736 23.4614
469 2 2.2208 5.25844 18.8538 16.4877
470 1 -1.1104 1.07141 14.6739 17.8821
471 1 -1.1104 1.075 20.2466 17.8825
472 1 -1.1104 1.0714 14.6738 15.0929
473 1 -1.1104 1.07507 20.2463 15.0931
474 1 -1.1104 1.0733 17.4603 17.8826
475 2 2.2208 5.25663 16.068 19.2771
476 2 2.2208 5.26022 21.6401 19.2775
477 1 -1.1104 1.07321 17.4601 15.0927
478 1 -1.1104 3.86093 14.6735 17.8825
479 1 -1.1104 3.86457 20.2457 17.8828
480 2 2.2208 2.46893 18.8547 19.2773
481 1 -1.1104 3.86084 14.6734 15.0926
482 1 -1.1104 3.86453 20.2455 15.0929
483 2 2.2208 2.46707 16.0681 16.4876
484 2 2.2208 2.4707 21.6404 16.4879
485 1 -1.1104 3.86267 17.4597 17.8823
486 1 -1.1104 3.86269 17.4595 15.093
498 1 -1.1104 6.65231 17.4593 17.8826
488 1 -1.1104 6.65418 20.2449 15.0931
490 1 -1.1104 6.65039 14.6732 17.8821
487 1 -1.1104 6.65225 17.4591 15.0926
496 1 -1.1104 1.07524 20.2472 20.6723
493 1 -1.1104 1.07326 17.4607 20.6718
495 1 -1.1104 1.07156 14.6742 20.6719
494 1 -1.1104 6.65037 14.6731 15.093
645 1 -1.1104 6.65225 17.4596 20.6718
646 1 -1.1104 3.8609 14.6738 20.6717
492 1 -1.1104 6.6542 20.2456 20.6723
692 2 2.2208 10.8397 21.6399 13.698
649 1 -1.1104 6.65438 20.2471 26.2511
528 2 2.2208 13.6272 18.8542 19.277
522 2 2.2208 13.6292 21.6404 16.4875
520 1 -1.1104 9.44197 17.4594 20.6721
489 1 -1.1104 6.65406 20.2451 17.8824
642 1 -1.1104 12.2315 17.4596 20.6715
500 2 2.2208 10.8376 18.8537 16.4875
501 1 -1.1104 12.2295 14.6734 17.8819
502 1 -1.1104 12.2334 20.2456 17.882
503 1 -1.1104 12.2294 14.6734 15.0928
504 1 -1.1104 12.2335 20.2457 15.093
505 1 -1.1104 12.2315 17.4595 17.8825
506 2 2.2208 10.8357 16.0678 19.277
507 2 2.2208 10.8395 21.6397 19.2773
508 1 -1.1104 12.2314 17.4596 15.0924
509 1 -1.1104 9.43999 14.6731 17.8825
510 1 -1.1104 9.44385 20.2449 17.8826
511 2 2.2208 8.04803 18.8537 19.2772
512 1 -1.1104 9.43993 14.6731 15.0925
513 1 -1.1104 9.44388 20.245 15.0925
514 2 2.2208 8.04612 16.0676 16.4875
515 2 2.2208 8.04995 21.6392 16.4877
516 1 -1.1104 9.44186 17.4592 17.8821
517 1 -1.1104 9.44186 17.4591 15.093
497 1 -1.1104 12.2335 20.2456 20.6721
518 1 -1.1104 9.4437 20.2454 20.6718
523 1 -1.1104 12.2296 14.6735 20.6719
519 1 -1.1104 9.44 14.6734 20.6715
669 2 2.2208 8.0499 21.6402 22.067
675 2 2.2208 13.6253 16.0682 22.0664
377 2 2.2208 13.6273 18.8549 24.856
526 1 -1.1104 6.64283 3.52801 20.6716
378 1 -1.1104 1.06393 3.52814 20.6716
532 2 2.2208 5.24711 2.13616 22.066
533 1 -1.1104 1.06003 -2.04494 23.4603
534 1 -1.1104 1.06389 3.52823 23.4606
535 1 -1.1104 1.06005 -2.04488 26.2502
536 1 -1.1104 1.06393 3.52828 26.2504
537 1 -1.1104 1.06199 0.741663 23.4609
538 2 2.2208 5.24516 -0.650309 24.8553
539 1 -1.1104 1.06192 0.741718 26.2499
540 1 -1.1104 3.84949 -2.0449 23.4608
541 1 -1.1104 3.85338 3.52815 23.461
542 2 2.2208 2.45767 2.13627 24.8554
543 1 -1.1104 3.84943 -2.04486 26.2497
544 1 -1.1104 3.85334 3.52825 26.25
545 2 2.2208 2.45574 -0.650347 22.0659
546 1 -1.1104 3.85138 0.741641 23.4605
547 1 -1.1104 3.8514 0.741697 26.2503
548 2 2.2208 5.24908 4.92274 24.8556
549 2 2.2208 2.45962 4.92275 22.0661
557 1 -1.1104 6.6389 -2.04492 23.4603
553 1 -1.1104 6.64087 0.741602 23.4609
550 1 -1.1104 6.64081 0.741656 26.2499
551 1 -1.1104 6.63892 -2.04487 26.2502
560 1 -1.1104 6.64279 3.52811 23.4606
552 1 -1.1104 6.64283 3.52817 26.2504
699 2 2.2208 10.8357 16.0678 13.6979
521 2 2.2208 13.6252 16.068 16.4874
556 2 2.2208 8.04622 16.068 22.0666
407 2 2.2208 13.6194 7.70898 19.2767
409 1 -1.1104 12.2198 0.741517 20.671
561 1 -1.1104 12.2218 3.52797 20.6715
410 1 -1.1104 9.43226 3.52799 20.6711
559 2 2.2208 13.6175 4.9226 22.0661
380 1 -1.1104 6.63894 -2.04493 20.6713
558 2 2.2208 13.6135 -0.650377 22.0659
372 2 2.2208 13.6155 2.13619 24.8554
562 2 2.2208 10.826 2.13611 22.066
563 1 -1.1104 12.2178 -2.04495 23.4603
564 1 -1.1104 12.2217 3.52805 23.4606
565 1 -1.1104 12.2178 -2.04491 26.2502
566 1 -1.1104 12.2218 3.52812 26.2504
567 1 -1.1104 12.2198 0.741557 23.4609
568 2 2.2208 10.8241 -0.650335 24.8553
569 1 -1.1104 12.2197 0.741615 26.2499
570 1 -1.1104 9.42837 -2.04492 23.4608
571 1 -1.1104 9.4323 3.52806 23.461
572 2 2.2208 8.03657 2.13617 24.8554
573 1 -1.1104 9.42833 -2.04489 26.2498
574 1 -1.1104 9.43226 3.5281 26.25
575 2 2.2208 8.03461 -0.650349 22.0659
576 1 -1.1104 9.43028 0.741591 23.4604
577 1 -1.1104 9.43031 0.741592 26.2503
579 2 2.2208 8.03854 4.92259 22.0661
578 2 2.2208 10.828 4.92265 24.8556
700 2 2.2208 8.03662 2.13606 13.6977
643 1 -1.1104 12.2296 14.6737 23.4609
584 1 -1.1104 6.65409 20.2464 23.4614
583 1 -1.1104 6.65244 17.4602 23.4615
674 1 -1.1104 12.2334 20.2461 23.4612
440 1 -1.1104 1.06962 11.8877 20.6715
591 1 -1.1104 3.85914 11.8874 20.6719
436 1 -1.1104 6.64855 11.8872 20.6715
592 2 2.2208 5.251 7.70913 22.0663
593 2 2.2208 5.2548 13.282 22.0665
594 1 -1.1104 1.06779 9.10137 23.4608
595 1 -1.1104 1.06783 9.10152 26.2506
596 1 -1.1104 1.06589 6.3148 23.4611
597 1 -1.1104 1.06974 11.888 23.4613
598 2 2.2208 5.25294 10.4957 24.8558
599 1 -1.1104 1.06587 6.31487 26.2501
600 1 -1.1104 1.0697 11.8882 26.2503
601 1 -1.1104 3.85727 9.10122 23.4612
602 2 2.2208 2.46157 7.70938 24.8557
603 2 2.2208 2.46539 13.2825 24.8559
604 1 -1.1104 3.85724 9.10132 26.2503
605 2 2.2208 2.46345 10.4958 22.0664
606 1 -1.1104 3.8553 6.31467 23.4607
607 1 -1.1104 3.85911 11.8877 23.461
608 1 -1.1104 3.85536 6.31479 26.2505
609 1 -1.1104 3.85917 11.8879 26.2507
612 1 -1.1104 6.6448 6.31466 26.2501
622 1 -1.1104 6.64865 11.8874 23.4614
616 1 -1.1104 6.64861 11.8876 26.2504
610 1 -1.1104 6.64669 9.10102 23.4609
611 1 -1.1104 6.64481 6.31459 23.4611
615 1 -1.1104 6.64675 9.10115 26.2507
375 1 -1.1104 9.44393 20.2461 23.4617
672 2 2.2208 13.6292 21.6406 22.0668
668 1 -1.1104 9.44005 14.6739 26.2504
613 2 2.2208 10.8377 18.8542 22.0666
468 2 2.2208 8.04813 18.8547 24.8561
620 2 2.2208 13.6214 10.4955 22.0662
621 2 2.2208 13.6195 7.70918 24.8556
618 2 2.2208 13.6234 13.2821 24.8558
463 1 -1.1104 12.2237 6.31443 20.6712
623 1 -1.1104 9.43625 9.10093 23.4612
624 1 -1.1104 12.2276 11.8876 26.2502
625 1 -1.1104 12.2238 6.3146 26.2501
626 2 2.2208 10.8319 10.4956 24.8557
627 1 -1.1104 12.2277 11.8874 23.4613
628 1 -1.1104 12.2238 6.31453 23.4611
629 1 -1.1104 12.2257 9.10108 26.2506
630 1 -1.1104 12.2257 9.10099 23.4607
631 1 -1.1104 9.43815 11.8875 26.2507
632 1 -1.1104 9.43432 6.31459 26.2505
633 1 -1.1104 9.43811 11.8873 23.4609
634 1 -1.1104 9.43425 6.31452 23.4607
635 2 2.2208 8.04242 10.4954 22.0664
636 1 -1.1104 9.43622 9.10107 26.2502
637 2 2.2208 8.04436 13.282 24.8559
638 2 2.2208 8.04052 7.70914 24.8557
639 2 2.2208 10.83 7.70901 22.0662
640 2 2.2208 10.8339 13.2818 22.0664
641 1 -1.1104 12.2297 14.674 26.2508
415 1 -1.1104 12.2316 17.46 23.4615
524 1 -1.1104 12.2336 20.2468 26.2511
697 2 2.2208 2.46894 18.8543 13.6981
499 1 -1.1104 6.65051 14.6735 20.672
644 1 -1.1104 3.86444 20.2464 20.6721
491 1 -1.1104 3.86283 17.4601 20.6721
650 1 -1.1104 3.86479 20.2472 23.4618
651 1 -1.1104 3.86105 14.6742 23.4614
652 1 -1.1104 1.07549 20.2486 26.2511
653 1 -1.1104 1.07348 17.4617 26.2506
654 2 2.2208 2.46719 16.0688 22.0666
655 2 2.2208 2.47081 21.6417 22.0671
656 1 -1.1104 3.86279 17.4607 23.4612
657 1 -1.1104 1.07352 17.4612 23.4616
658 1 -1.1104 3.86102 14.6745 26.2505
659 1 -1.1104 3.863 17.4611 26.2509
660 2 2.2208 2.46916 18.8558 24.8562
661 1 -1.1104 3.86472 20.2478 26.2508
662 2 2.2208 5.2585 18.8546 22.0668
663 1 -1.1104 1.07152 14.6746 23.4611
664 1 -1.1104 1.0752 20.2479 23.4615
665 2 2.2208 5.25672 16.0687 24.856
666 2 2.2208 5.26042 21.6417 24.8565
667 1 -1.1104 1.07166 14.6749 26.2508
647 1 -1.1104 6.65056 14.6741 26.2508
617 2 2.2208 10.8396 21.6409 24.8564
648 1 -1.1104 6.65047 14.6738 23.4611
695 2 2.2208 13.6232 13.2818 13.6978
685 2 2.2208 2.46145 7.70902 13.6979
681 2 2.2208 10.828 4.92247 13.6978
679 2 2.2208 13.6155 2.13607 13.6976
676 2 2.2208 10.8242 -0.65041 13.6976
677 2 2.2208 5.24902 4.9225 13.6978
682 2 2.2208 2.46521 13.2818 13.6979
683 2 2.2208 5.2528 10.4953 13.698
691 2 2.2208 13.6272 18.8544 13.6979
686 2 2.2208 8.04807 18.8536 13.698
694 2 2.2208 8.04039 7.70886 13.6979
688 2 2.2208 10.8318 10.4952 13.6979
687 2 2.2208 8.0442 13.2815 13.698
689 2 2.2208 13.6193 7.70897 13.6978
698 2 2.2208 5.25656 16.0678 13.698
678 2 2.2208 2.45768 2.13611 13.6977
693 2 2.2208 5.24521 -0.650346 13.6976
582 2 2.2208 8.03263 -3.43684 24.8552
554 2 2.2208 2.45381 -3.4369 19.2763
690 2 2.2208 2.45386 -3.43683 13.6974
580 2 2.2208 2.45378 -3.43687 24.8552
581 2 2.2208 5.24323 -3.43687 22.0658
439 2 2.2208 5.24327 -3.43683 16.4869
381 2 2.2208 13.6116 -3.43688 24.8552
701 2 2.2208 5.26246 24.4283 5.32976
702 2 2.2208 5.26663 30.0019 5.32988
703 1 -1.1104 1.07931 25.8235 1.14604
704 1 -1.1104 1.0792 25.8229 3.93528
705 1 -1.1104 1.07736 23.036 1.14613
706 1 -1.1104 1.08147 28.6115 1.14649
707 2 2.2208 5.26449 27.2161 2.54101
708 1 -1.1104 1.07737 23.0356 3.93502
709 1 -1.1104 1.08153 28.6106 3.93507
710 1 -1.1104 3.86866 25.8222 1.14633
711 2 2.2208 2.47306 24.4302 2.54069
712 2 2.2208 2.4774 30.0057 2.54115
713 1 -1.1104 3.86871 25.8215 3.93512
714 2 2.2208 2.47504 27.2165 5.32977
715 1 -1.1104 3.86665 23.035 1.14588
716 1 -1.1104 3.87058 28.6097 1.14655
717 1 -1.1104 3.86661 23.0345 3.93522
718 1 -1.1104 3.87052 28.6087 3.93535
877 1 -1.1104 1.07712 23.0347 6.72452
723 1 -1.1104 3.86837 25.8201 6.72442
728 1 -1.1104 1.08093 28.6087 6.72432
725 1 -1.1104 6.65612 23.0327 6.72447
722 1 -1.1104 6.65992 28.6047 6.7245
719 1 -1.1104 6.66026 28.6079 1.14686
879 1 -1.1104 6.65829 25.8188 6.72421
726 1 -1.1104 1.07931 25.8216 6.72425
964 2 2.2208 13.6349 38.3711 10.9051
1027 2 2.2208 10.8526 41.1601 -0.246529
849 2 2.2208 5.2946 46.7612 -0.251072
732 1 -1.1104 6.66039 28.6068 3.93534
720 1 -1.1104 6.65626 23.0336 3.93494
727 1 -1.1104 6.65624 23.034 1.14613
721 1 -1.1104 6.65814 25.8202 3.93536
731 1 -1.1104 6.65807 25.8208 1.14621
733 2 2.2208 10.8418 24.4276 5.32992
734 2 2.2208 10.8462 30.0003 5.33045
735 1 -1.1104 12.2376 25.82 1.14604
736 1 -1.1104 12.2378 25.8198 3.93575
737 1 -1.1104 12.2356 23.0336 1.14627
738 1 -1.1104 12.2401 28.6065 1.14711
739 2 2.2208 10.8439 27.2146 2.54122
740 1 -1.1104 12.2356 23.0334 3.93493
741 1 -1.1104 12.2401 28.6061 3.93543
742 1 -1.1104 9.44793 25.82 1.14655
743 2 2.2208 8.05206 24.4282 2.54076
744 2 2.2208 8.05629 30.0019 2.54168
745 1 -1.1104 9.44801 25.8195 3.93512
746 2 2.2208 8.05414 27.214 5.32997
747 1 -1.1104 9.4458 23.0334 1.1458
748 1 -1.1104 9.44988 28.6066 1.14672
749 1 -1.1104 9.44586 23.0332 3.93535
750 1 -1.1104 9.45012 28.6059 3.93583
751 1 -1.1104 9.45027 28.604 6.72436
754 1 -1.1104 12.24 28.6051 6.72536
791 2 2.2208 13.6314 24.4285 2.5408
757 2 2.2208 13.6336 27.2148 5.33019
756 2 2.2208 13.636 30.0019 2.54163
760 2 2.2208 5.27178 35.5776 5.32998
761 1 -1.1104 1.08371 31.4 1.14648
762 1 -1.1104 1.08969 36.9802 1.14646
763 1 -1.1104 1.08349 31.3989 3.93526
764 1 -1.1104 1.08918 36.9782 3.93469
765 1 -1.1104 1.08643 34.1897 1.14696
766 2 2.2208 5.26911 32.7919 2.54199
767 2 2.2208 5.27526 38.3718 2.54257
768 1 -1.1104 1.08668 34.1878 3.93477
769 1 -1.1104 3.8729 31.398 1.14706
770 1 -1.1104 3.87812 36.9772 1.14788
771 2 2.2208 2.48325 35.5843 2.5417
772 1 -1.1104 3.87303 31.3964 3.93539
773 1 -1.1104 3.87845 36.9738 3.93515
774 2 2.2208 2.47994 32.7922 5.32962
775 2 2.2208 2.48759 38.3715 5.32859
776 1 -1.1104 3.87523 34.1867 1.1475
777 1 -1.1104 3.87497 34.1847 3.93549
778 1 -1.1104 6.66223 31.3952 1.14741
780 1 -1.1104 6.66511 34.1809 3.93573
928 1 -1.1104 3.87218 31.3934 6.72421
781 1 -1.1104 1.08374 31.3963 6.72394
789 1 -1.1104 1.08552 34.1844 6.7238
790 1 -1.1104 3.87691 36.9681 6.72359
784 1 -1.1104 6.66725 36.9616 6.72382
787 1 -1.1104 6.66388 34.176 6.724
1024 2 2.2208 2.48666 38.3763 -0.244793
1034 2 2.2208 10.8497 35.5753 -0.24358
1067 2 2.2208 10.8586 46.7598 -0.267376
960 1 -1.1104 12.3765 45.3477 9.42918
782 1 -1.1104 6.66228 31.3937 3.93564
783 1 -1.1104 6.66478 34.1837 1.1481
786 1 -1.1104 6.6666 36.9688 3.93555
779 1 -1.1104 6.66739 36.9729 1.14859
794 2 2.2208 10.8509 35.5735 5.33063
795 1 -1.1104 12.2422 31.3931 1.14709
796 1 -1.1104 12.2475 36.9674 1.14828
797 1 -1.1104 12.2427 31.3923 3.93648
798 1 -1.1104 12.2483 36.9641 3.93569
799 1 -1.1104 12.2452 34.1799 1.14814
800 2 2.2208 10.8484 32.7884 2.54254
801 2 2.2208 10.8514 38.3653 2.54416