ITEM: TIMESTEP
0
ITEM: NUMBER OF ATOMS
17760
ITEM: BOX BOUNDS pp pp pp
-2.7717828229332220e-01 2.7617178282293317e+01
-3.4472205766305355e+00 3.3152722057663055e+02
-2.7717827830221448e-01 2.7617178278302212e+01
ITEM: ATOMS id type q x y z
1 2 2.2208 5.3261 2.19021 5.14853
2 1 -1.1104 1.0967 -2.15487 0.887647
3 1 -1.1104 1.11448 3.45615 1.05935
4 1 -1.1104 1.17546 -2.0795 3.72924
5 1 -1.1104 1.02655 3.52795 3.69777
6 1 -1.1104 1.10502 0.640876 1.06031
7 2 2.2208 5.30202 -0.644807 2.30646
8 1 -1.1104 1.10237 0.656781 3.83507
9 1 -1.1104 3.69108 -2.10675 0.930054
10 1 -1.1104 3.90583 3.478 0.873596
11 2 2.2208 2.49268 2.05886 2.39535
12 1 -1.1104 4.0057 -2.14836 3.64471
13 1 -1.1104 3.90825 3.5957 3.69443
14 2 2.2208 2.57932 -0.600109 5.0782
15 2 2.2208 2.44789 4.79823 5.17785
16 1 -1.1104 4.02682 0.698495 0.898106
17 1 -1.1104 3.91295 0.847572 3.6472
18 2 2.2208 5.35952 4.89817 2.41422
32 2 2.2208 5.2604 -3.4161 5.11359
204 2 2.2208 2.53267 -3.43053 2.38254
174 1 -1.1104 1.18275 -2.04785 6.54847
29 1 -1.1104 1.17569 0.655644 6.45083
26 1 -1.1104 6.62465 3.44466 6.60498
28 1 -1.1104 1.00523 3.46173 6.457
19 1 -1.1104 4.00514 0.681059 6.40565
173 1 -1.1104 3.81964 3.53922 6.58267
22 1 -1.1104 6.56053 -2.00797 0.919158
30 1 -1.1104 3.95252 -1.98534 6.41837
9146 2 2.2208 -0.230917 4.97097 2.47943
9123 2 2.2208 -0.215793 2.08919 5.16018
9121 2 2.2208 -0.261526 -0.749882 2.49323
33 1 -1.1104 6.75319 0.825518 3.79411
23 1 -1.1104 6.74057 3.63255 3.88956
35 1 -1.1104 6.72993 -1.96418 3.7034
59 1 -1.1104 6.79793 0.798823 6.65545
25 1 -1.1104 6.75228 3.49219 0.998324
202 2 2.2208 10.9071 -3.35504 5.05289
34 1 -1.1104 6.71082 0.744591 0.869442
36 2 2.2208 10.8963 2.0997 5.12551
37 1 -1.1104 12.2939 -1.93621 1.07679
38 1 -1.1104 12.1916 3.45127 0.797813
39 1 -1.1104 12.2831 -2.02909 3.78257
40 1 -1.1104 12.3351 3.49817 3.82152
41 1 -1.1104 12.1531 0.771363 0.975495
42 2 2.2208 10.878 -0.57233 2.36149
43 1 -1.1104 12.2493 0.769381 3.66844
44 1 -1.1104 9.5156 -1.98916 1.01993
45 1 -1.1104 9.4569 3.54108 1.00146
46 2 2.2208 8.10018 2.22444 2.43399
47 1 -1.1104 9.36813 -1.85432 3.68469
48 1 -1.1104 9.5602 3.7135 3.81336
49 2 2.2208 8.08462 -0.589608 5.13805
50 1 -1.1104 9.39435 0.780569 0.92572
51 1 -1.1104 9.42985 0.927503 3.67807
52 2 2.2208 8.25088 4.93986 5.21923
53 2 2.2208 10.9689 4.89999 2.35423
206 1 -1.1104 9.6206 3.43615 6.55472
56 1 -1.1104 12.3936 3.48737 6.55006
57 1 -1.1104 9.46733 -2.11678 6.41734
58 1 -1.1104 9.49867 0.512109 6.63118
27 1 -1.1104 6.719 -2.03529 6.68703
54 1 -1.1104 12.2 0.682533 6.55945
20 2 2.2208 7.96136 -3.36255 2.2132
254 2 2.2208 13.6171 -0.651093 5.11087
61 2 2.2208 5.11061 7.80108 5.08469
62 2 2.2208 5.21775 13.309 5.16569
63 1 -1.1104 0.955874 9.11713 1.04731
64 1 -1.1104 1.15994 9.28018 3.76354
65 1 -1.1104 1.09255 6.27915 1.01144
66 1 -1.1104 0.982193 11.8835 0.931187
67 2 2.2208 5.09855 10.3771 2.31147
68 1 -1.1104 1.08694 6.45535 3.87357
69 1 -1.1104 1.1697 12.0681 3.63198
70 1 -1.1104 3.76862 9.03049 0.899121
71 2 2.2208 2.46431 7.5961 2.32323
72 2 2.2208 2.46871 13.329 2.24327
73 1 -1.1104 3.67304 9.10899 3.72471
74 2 2.2208 2.38839 10.622 5.12375
75 1 -1.1104 3.93829 6.20742 0.865838
76 1 -1.1104 3.80663 11.8716 0.936799
77 1 -1.1104 3.90682 6.3152 3.78343
78 1 -1.1104 4.06902 11.8722 3.79027
93 1 -1.1104 6.65418 6.40731 3.8193
82 1 -1.1104 6.54587 8.95159 0.995188
86 1 -1.1104 3.88572 11.9151 6.50558
89 1 -1.1104 3.83434 6.34967 6.63451
88 1 -1.1104 1.00143 9.06038 6.68095
84 1 -1.1104 6.67281 6.28387 1.01624
261 1 -1.1104 6.58401 9.07016 6.55744
87 1 -1.1104 1.06374 11.8648 6.61276
80 1 -1.1104 3.72699 9.23149 6.46135
83 1 -1.1104 6.58089 11.7931 0.986745
81 1 -1.1104 6.63374 9.20847 3.77402
85 1 -1.1104 1.15197 6.25142 6.67411
9058 2 2.2208 -0.252927 7.8314 5.2435
9031 2 2.2208 -0.257463 10.5019 2.39053
90 1 -1.1104 6.82353 6.22006 6.51326
92 1 -1.1104 6.82282 12.0008 3.82693
94 2 2.2208 10.8597 7.68153 5.11622
95 2 2.2208 10.8843 13.2098 5.18585
96 1 -1.1104 12.2896 9.14612 0.917428
97 1 -1.1104 12.1198 9.09612 3.71803
98 1 -1.1104 12.1406 6.38721 0.963151
99 1 -1.1104 12.2369 11.9695 0.994587
100 2 2.2208 10.7693 10.4499 2.37542
101 1 -1.1104 12.2335 6.29416 3.80463
102 1 -1.1104 12.3355 11.8688 3.75766
103 1 -1.1104 9.35086 9.00968 0.950821
104 2 2.2208 7.96693 7.70185 2.53119
105 2 2.2208 8.01482 13.2096 2.445
106 1 -1.1104 9.43475 9.03955 3.79905
107 2 2.2208 8.12218 10.6012 5.08197
108 1 -1.1104 9.40028 6.44761 1.03657
109 1 -1.1104 9.39431 11.8288 1.01132
110 1 -1.1104 9.44314 6.28114 3.81222
111 1 -1.1104 9.41258 11.7372 3.79403
117 1 -1.1104 9.29269 9.28874 6.66515
112 1 -1.1104 9.47877 6.40759 6.54577
263 1 -1.1104 12.2665 6.3421 6.57339
231 2 2.2208 13.6532 13.2718 2.32055
251 1 -1.1104 6.77631 11.8574 6.49113
115 1 -1.1104 12.2048 9.12066 6.47455
264 1 -1.1104 12.1725 11.9511 6.44616
116 1 -1.1104 9.43037 12.045 6.52251
229 2 2.2208 13.6286 10.5332 5.1513
230 2 2.2208 13.5399 7.82506 2.27867
119 2 2.2208 5.30046 18.8209 5.1355
120 1 -1.1104 1.14569 14.7044 0.999335
121 1 -1.1104 1.07768 20.2533 1.06092
122 1 -1.1104 1.1031 14.6116 3.6873
123 1 -1.1104 1.16964 20.1621 3.69145
124 1 -1.1104 1.12938 17.4521 1.04759
125 2 2.2208 5.36047 16.0804 2.35575
126 2 2.2208 5.35677 21.5927 2.47595
127 1 -1.1104 0.99095 17.3459 3.8431
128 1 -1.1104 3.98459 14.7644 0.977959
129 1 -1.1104 4.04274 20.217 1.17541
130 2 2.2208 2.58183 18.8586 2.42612
131 1 -1.1104 3.74741 14.6503 3.71165
132 1 -1.1104 3.96315 20.3208 4.00533
133 2 2.2208 2.4545 16.1417 5.12537
134 2 2.2208 2.58123 21.6442 5.18368
135 1 -1.1104 3.82024 17.4598 1.09576
136 1 -1.1104 3.87838 17.4976 3.7387
141 1 -1.1104 6.67841 17.4423 3.66126
290 1 -1.1104 1.09605 17.3946 6.63181
139 1 -1.1104 3.88797 17.5418 6.53929
171 1 -1.1104 6.59777 14.7329 6.43448
287 1 -1.1104 1.10733 20.1999 6.44192
286 1 -1.1104 0.969137 14.6662 6.67113
142 1 -1.1104 3.84867 14.7744 6.52987
8899 2 2.2208 -0.232353 16.1146 2.33726
347 2 2.2208 5.36867 18.9078 -0.199155
140 1 -1.1104 6.70291 17.404 6.51649
145 1 -1.1104 6.78413 17.472 0.965211
318 1 -1.1104 9.4817 20.2258 6.52439
168 1 -1.1104 12.3176 14.6275 6.50926
146 1 -1.1104 6.82673 14.6527 1.0945
147 1 -1.1104 6.9408 20.3565 1.05551
137 1 -1.1104 6.78298 20.2422 3.75519
148 1 -1.1104 6.71605 14.6865 3.89185
138 1 -1.1104 6.69726 20.1526 6.5111
149 2 2.2208 10.8317 18.9038 5.06547
150 1 -1.1104 12.3973 14.7315 0.873629
151 1 -1.1104 12.4677 20.1499 1.00352
152 1 -1.1104 12.345 14.7385 3.7379
153 1 -1.1104 12.3487 20.2155 3.74607
154 1 -1.1104 12.3108 17.4099 0.977507
155 2 2.2208 10.8894 15.9152 2.26589
156 2 2.2208 10.9928 21.625 2.35892
157 1 -1.1104 12.2008 17.3419 3.74733
158 1 -1.1104 9.57891 14.61 0.960193
159 1 -1.1104 9.6633 20.3211 0.969642
160 2 2.2208 8.19016 18.8689 2.26461
161 1 -1.1104 9.58231 14.4841 3.72084
162 1 -1.1104 9.47234 20.2625 3.80433
163 2 2.2208 8.22984 16.0143 5.05345
164 2 2.2208 8.12541 21.6056 5.20113
165 1 -1.1104 9.50678 17.497 0.92483
166 1 -1.1104 9.49368 17.3894 3.51381
169 1 -1.1104 12.3328 17.4339 6.39747
170 1 -1.1104 12.2256 20.0942 6.54332
167 1 -1.1104 9.396 14.772 6.59054
144 1 -1.1104 9.44098 17.4936 6.47493
344 2 2.2208 8.198 21.788 -0.255712
684 2 2.2208 2.49818 -3.33612 13.5079
8910 2 2.2208 -0.0904931 -0.713362 7.99086
8901 2 2.2208 -0.21464 2.00201 10.7478
682 2 2.2208 2.53896 2.1039 13.5335
60 2 2.2208 2.62221 -3.36913 7.88452
694 2 2.2208 5.17836 4.96809 13.5287
178 2 2.2208 5.37253 2.28296 10.7539
179 1 -1.1104 1.16649 -2.05074 12.0702
180 1 -1.1104 1.21043 3.41326 12.1552
181 1 -1.1104 1.13336 -1.95523 9.38892
182 1 -1.1104 1.08457 3.37926 9.34403
183 1 -1.1104 1.21909 0.670279 12.171
184 2 2.2208 5.49367 -0.613975 8.00272
185 1 -1.1104 1.20707 0.710455 9.32977
186 1 -1.1104 3.93318 -2.11074 12.0277
187 1 -1.1104 3.96021 3.45355 12.117
188 2 2.2208 2.65495 2.10027 8.01038
189 1 -1.1104 3.92617 -2.01045 9.26402
190 1 -1.1104 3.99961 3.43736 9.30905
191 2 2.2208 2.58506 -0.698163 10.7705
192 2 2.2208 2.45854 4.83978 10.7317
193 1 -1.1104 3.92184 0.577907 12.239
194 1 -1.1104 4.1123 0.650267 9.294
195 2 2.2208 5.2803 5.04959 8.01218
690 2 2.2208 5.49137 -0.685338 13.4928
9567 2 2.2208 -0.150912 -0.667108 13.5742
55 2 2.2208 5.33989 -3.39864 10.6093
207 1 -1.1104 12.1761 -2.04591 6.75935
196 2 2.2208 13.6279 -0.592725 10.7504
208 1 -1.1104 6.75932 0.951852 9.48003
198 1 -1.1104 6.74668 -1.99393 9.36958
200 1 -1.1104 6.8102 3.50281 12.1077
205 1 -1.1104 6.72804 3.75302 9.33057
197 2 2.2208 8.09995 -3.4198 7.87937
688 2 2.2208 10.9367 4.83403 13.5343
687 2 2.2208 8.09051 2.00853 13.5216
199 1 -1.1104 6.84744 -2.06568 12.1744
201 1 -1.1104 6.72866 0.826145 12.1276
209 2 2.2208 10.9776 2.14932 10.7299
210 1 -1.1104 12.4418 -2.0404 12.194
211 1 -1.1104 12.3674 3.4521 12.1174
212 1 -1.1104 12.243 -2.09344 9.52752
213 1 -1.1104 12.2852 3.55642 9.26492
214 1 -1.1104 12.3946 0.829902 12.1431
215 2 2.2208 10.8716 -0.614333 8.03132
216 1 -1.1104 12.3297 0.749795 9.41588
217 1 -1.1104 9.6569 -1.98613 12.2146
218 1 -1.1104 9.50313 3.65085 12.2392
219 2 2.2208 8.19756 2.21565 8.03108
220 1 -1.1104 9.46626 -1.95272 9.33701
221 1 -1.1104 9.44703 3.4254 9.40253
222 2 2.2208 8.16636 -0.559455 10.7833
223 2 2.2208 7.98153 4.93152 10.9147
224 1 -1.1104 9.6256 0.817642 12.1902
225 1 -1.1104 9.48463 0.694453 9.3951
226 2 2.2208 10.8755 4.86378 7.93871
203 2 2.2208 13.6194 2.08929 7.85931
689 2 2.2208 10.913 -0.531368 13.6086
227 2 2.2208 13.521 -3.43255 8.0753
685 2 2.2208 13.6254 -3.44305 13.6419
8911 2 2.2208 -0.277042 13.2736 10.706
692 2 2.2208 5.38106 10.4777 13.576
691 2 2.2208 2.57157 7.72929 13.4639
232 2 2.2208 5.22418 7.6737 10.7233
233 2 2.2208 5.27143 13.2553 10.7592
234 1 -1.1104 1.14166 8.90551 12.2143
235 1 -1.1104 1.09898 9.10002 9.44871
236 1 -1.1104 1.10923 6.28163 12.0772
237 1 -1.1104 1.1895 11.7926 12.1332
238 2 2.2208 5.24064 10.6211 7.91522
239 1 -1.1104 1.15743 6.18162 9.45178
240 1 -1.1104 1.17475 11.8716 9.38391
241 1 -1.1104 4.02001 9.09277 12.1231
242 2 2.2208 2.47495 7.65345 8.07022
243 2 2.2208 2.5164 13.373 7.98324
244 1 -1.1104 3.99051 9.14967 9.37163
245 2 2.2208 2.6404 10.5256 10.704
246 1 -1.1104 3.80515 6.22705 12.1693
247 1 -1.1104 3.88369 11.8806 12.2191
248 1 -1.1104 3.82483 6.31809 9.40106
249 1 -1.1104 3.90783 11.8316 9.49823
262 1 -1.1104 6.50591 6.32563 12.1913
250 1 -1.1104 6.63742 11.887 9.38964
260 1 -1.1104 6.57122 9.08121 12.1861
252 1 -1.1104 6.6619 9.18697 9.35797
259 1 -1.1104 6.61979 11.7898 12.0978
693 2 2.2208 2.59813 13.2523 13.6019
253 1 -1.1104 6.66961 6.46517 9.34298
9559 2 2.2208 -0.239323 10.3549 13.4622
114 2 2.2208 13.6001 13.3431 7.90559
695 2 2.2208 7.98794 7.74815 13.5181
265 1 -1.1104 9.39652 11.9015 9.21875
266 1 -1.1104 9.47779 6.28481 9.27966
267 1 -1.1104 9.51031 11.9533 12.0177
268 1 -1.1104 9.44592 6.40093 12.0026
269 2 2.2208 8.11081 10.5229 10.7091
270 1 -1.1104 9.45902 9.10912 9.34036
271 2 2.2208 8.01118 13.2758 7.80909
272 2 2.2208 7.95049 7.66768 8.05009
273 2 2.2208 10.9543 7.74507 10.6912
274 2 2.2208 10.8427 13.3911 10.7058
275 1 -1.1104 12.3032 9.08824 12.1207
276 1 -1.1104 12.2569 9.14948 9.33224
277 1 -1.1104 12.3292 6.25093 12.0507
278 1 -1.1104 12.3297 11.945 12.1052
279 2 2.2208 10.789 10.6195 7.96931
280 1 -1.1104 12.2212 6.37549 9.31428
281 1 -1.1104 12.3001 12.0137 9.31446
282 1 -1.1104 9.55676 9.13793 12.198
21 2 2.2208 13.6486 7.72244 7.94154
680 2 2.2208 13.6579 13.3692 13.4689
696 2 2.2208 10.8725 10.4498 13.4858
698 2 2.2208 8.15444 13.3329 13.5462
678 2 2.2208 13.6142 7.71738 13.5827
143 1 -1.1104 3.7674 20.2947 6.71255
323 1 -1.1104 6.69098 14.6547 12.2469
309 1 -1.1104 6.63619 20.2118 12.0615
291 1 -1.1104 3.92187 14.6027 9.41277
292 1 -1.1104 3.90567 17.432 9.27293
293 1 -1.1104 1.03446 17.4452 12.2651
294 2 2.2208 2.58297 16.2434 10.7628
295 2 2.2208 2.49444 21.8014 10.7886
296 1 -1.1104 3.92966 17.5587 12.0993
297 1 -1.1104 3.84704 20.2778 12.2585
298 1 -1.1104 3.96148 14.733 12.209
299 1 -1.1104 1.1762 20.2022 9.22557
300 1 -1.1104 1.0772 17.5101 9.37045
301 2 2.2208 5.3235 21.502 8.0121
302 1 -1.1104 1.13576 14.7579 9.39914
303 2 2.2208 5.39238 16.0515 7.89493
304 1 -1.1104 1.11166 20.2392 12.0899
305 1 -1.1104 1.16047 14.6087 12.2516
306 2 2.2208 5.46055 18.8681 10.7063
307 1 -1.1104 3.94012 20.2201 9.44383
308 2 2.2208 2.54146 18.9062 7.92435
700 2 2.2208 2.51682 18.8271 13.6101
699 2 2.2208 5.38087 16.0566 13.6028
697 2 2.2208 5.32726 21.687 13.4557
9177 2 2.2208 -0.258868 18.9023 10.7687
9557 2 2.2208 -0.220784 21.6583 13.4447
9555 2 2.2208 -0.245357 16.0408 13.5841
683 2 2.2208 10.9257 21.6867 13.5669
316 2 2.2208 8.22121 15.9698 10.7036
317 1 -1.1104 12.3658 20.3274 9.36463
285 2 2.2208 10.8897 18.7805 10.7066
312 1 -1.1104 9.54355 17.4441 12.179
31 2 2.2208 13.6512 16.1952 10.8416
676 2 2.2208 13.6254 18.9266 13.6102
325 1 -1.1104 6.80755 20.2752 9.25689
322 1 -1.1104 6.73617 17.4411 9.30004
289 1 -1.1104 6.74704 14.8802 9.28054
320 1 -1.1104 12.4211 17.5297 9.11016
319 1 -1.1104 6.81752 17.4371 12.0878
321 1 -1.1104 9.45701 20.2019 9.21164
284 2 2.2208 10.9258 16.1572 7.78347
677 2 2.2208 10.9518 16.0523 13.5562
258 1 -1.1104 12.1432 14.9646 9.37247
310 2 2.2208 8.11447 21.6642 10.7563
315 1 -1.1104 12.2358 20.2674 12.1561
311 1 -1.1104 9.52222 14.7791 12.0945
172 1 -1.1104 9.33014 14.5434 9.38698
288 2 2.2208 10.7907 21.7032 7.99344
313 1 -1.1104 12.2459 17.4872 12.0529
324 2 2.2208 8.11158 18.7696 7.95719
314 1 -1.1104 9.52966 17.4033 9.21341
113 1 -1.1104 12.2483 14.6455 12.2325
91 1 -1.1104 9.56121 20.2888 12.0445
679 2 2.2208 8.12361 18.9259 13.5809
351 2 2.2208 5.24923 2.10511 16.3228
352 1 -1.1104 0.927508 -1.99994 17.7639
353 1 -1.1104 1.04479 3.5325 17.8173
354 1 -1.1104 1.20172 -2.03507 15.03
355 1 -1.1104 1.03456 3.55753 15.0179
356 1 -1.1104 1.02821 0.670175 17.8033
357 2 2.2208 5.28999 -0.608556 19.1166
358 1 -1.1104 1.1141 0.827847 14.9702
359 1 -1.1104 3.89568 -2.0514 17.74
360 1 -1.1104 3.93937 3.51268 17.605
361 2 2.2208 2.49564 2.03701 19.2138
362 1 -1.1104 4.10627 -1.94862 14.8925
363 1 -1.1104 3.76942 3.51516 14.8613
364 2 2.2208 2.53719 -0.651362 16.3178
365 1 -1.1104 3.95612 0.849956 17.7904
366 1 -1.1104 3.87764 0.630067 14.943
367 2 2.2208 2.53603 4.94854 16.2347
368 2 2.2208 5.30048 4.95502 19.0166
384 1 -1.1104 6.66511 3.41953 17.7969
385 1 -1.1104 6.67445 0.763024 14.9128
377 1 -1.1104 4.08138 3.63378 20.3306
533 1 -1.1104 1.19242 3.56359 20.5536
379 1 -1.1104 3.96361 -1.95474 20.3634
378 1 -1.1104 1.07443 0.829897 20.5053
372 1 -1.1104 3.92194 0.742113 20.5588
373 1 -1.1104 1.16237 -2.07556 20.5685
405 1 -1.1104 6.66124 3.51952 20.4683
382 2 2.2208 5.41646 -3.37249 16.3426
9456 2 2.2208 -0.269227 2.16936 16.296
383 1 -1.1104 6.74259 0.698497 17.7927
375 1 -1.1104 6.7899 -1.9719 14.9438
376 1 -1.1104 6.79251 3.52982 15.0112
374 1 -1.1104 6.76844 -2.04442 17.7854
386 2 2.2208 10.9593 2.21747 16.4369
387 1 -1.1104 12.2091 -2.02946 17.7636
388 1 -1.1104 12.4723 3.49373 17.7744
389 1 -1.1104 12.336 -2.03255 15.1245
390 1 -1.1104 12.3771 3.60855 14.8981
391 1 -1.1104 12.333 0.814961 17.6911
392 2 2.2208 10.8688 -0.686153 19.1889
393 2 2.2208 10.8781 4.9298 19.1699
394 1 -1.1104 12.2457 0.815869 14.9721
395 1 -1.1104 9.46985 -2.03616 17.7082
396 1 -1.1104 9.4564 3.46783 17.8455
397 2 2.2208 8.07367 2.12976 19.2225
398 1 -1.1104 9.67494 -2.05521 14.9192
399 1 -1.1104 9.55657 3.34729 14.9643
400 2 2.2208 8.17776 -0.546694 16.3616
401 1 -1.1104 9.53453 0.903597 17.7894
402 1 -1.1104 9.41023 0.641458 14.8948
403 2 2.2208 8.03378 4.83067 16.3024
559 1 -1.1104 12.2652 3.61134 20.5109
558 1 -1.1104 12.394 0.704292 20.4677
569 1 -1.1104 9.46965 0.790273 20.5909
560 1 -1.1104 9.5155 -2.06822 20.5221
489 2 2.2208 8.11524 -3.40586 19.204
561 1 -1.1104 6.79086 0.676451 20.4383
573 1 -1.1104 12.3289 -2.01207 20.5974
564 1 -1.1104 6.77471 -2.0104 20.4988
562 1 -1.1104 9.50164 3.46777 20.4033
597 2 2.2208 13.6 -0.682595 16.3477
370 2 2.2208 13.5946 4.93442 16.2549
406 2 2.2208 13.6277 -3.40687 19.1556
409 2 2.2208 5.29119 7.79528 16.3271
410 2 2.2208 5.33494 13.3282 16.3445
411 1 -1.1104 1.0312 8.94822 17.714
412 1 -1.1104 1.06542 9.04889 14.9093
413 1 -1.1104 1.19082 6.35888 17.6398
414 1 -1.1104 1.00616 11.7268 17.6807
415 2 2.2208 5.34397 10.4387 19.137
416 1 -1.1104 1.13672 6.2744 14.7823
417 1 -1.1104 1.12704 11.9062 14.8575
418 1 -1.1104 3.77528 9.09317 17.6488
419 2 2.2208 2.37929 7.63897 19.1034
420 2 2.2208 2.43185 13.4179 19.1882
421 1 -1.1104 3.95004 9.0104 14.8797
422 2 2.2208 2.43461 10.404 16.2762
423 1 -1.1104 3.89242 6.2074 17.7087
424 1 -1.1104 3.84763 11.8416 17.8802
425 1 -1.1104 3.88895 6.33965 14.9615
426 1 -1.1104 3.98893 11.8298 14.9456
431 1 -1.1104 6.6492 6.31001 17.7503
429 1 -1.1104 6.69353 6.33145 14.8998
435 1 -1.1104 3.93261 11.9096 20.5376
601 1 -1.1104 1.12891 9.13572 20.4937
433 1 -1.1104 3.81855 6.378 20.4798
434 1 -1.1104 3.86136 9.15186 20.5694
603 1 -1.1104 0.978959 12.0459 20.4336
427 1 -1.1104 6.61354 9.24505 17.7801
464 1 -1.1104 6.66861 9.10906 20.5563
460 1 -1.1104 6.50317 6.25124 20.6129
602 1 -1.1104 1.08224 6.40684 20.4412
438 1 -1.1104 6.76792 9.12004 14.9296
437 1 -1.1104 6.87344 12.0353 17.6876
428 1 -1.1104 6.75329 11.9324 14.9558
463 1 -1.1104 6.78113 11.9083 20.3381
592 2 2.2208 13.5853 13.4137 19.045
439 2 2.2208 10.9086 7.81078 16.3772
440 2 2.2208 10.8436 13.3552 16.3583
441 1 -1.1104 12.2161 9.07469 17.7932
442 1 -1.1104 12.242 9.11866 14.9424
443 1 -1.1104 12.1808 6.30329 17.6418
444 1 -1.1104 12.2479 12.0303 17.7219
445 2 2.2208 10.7056 10.4931 19.0729
446 1 -1.1104 12.157 6.44176 14.9019
447 1 -1.1104 12.3088 11.8314 14.9251
448 1 -1.1104 9.39879 9.1471 17.6696
449 2 2.2208 8.1015 7.77049 19.1394
450 2 2.2208 8.21422 13.2929 19.1409
451 1 -1.1104 9.52471 9.01621 14.9223
452 2 2.2208 8.03663 10.5501 16.2737
453 1 -1.1104 9.4949 6.31394 17.6776
454 1 -1.1104 9.47201 11.9042 17.6785
455 1 -1.1104 9.32563 6.15095 14.7945
456 1 -1.1104 9.60242 11.9093 14.8396
462 1 -1.1104 12.308 9.21785 20.5839
466 1 -1.1104 9.35835 9.03887 20.4441
457 1 -1.1104 12.2456 6.36389 20.5252
461 1 -1.1104 9.39058 6.34157 20.5337
458 1 -1.1104 12.1696 11.8461 20.5027
465 1 -1.1104 9.38378 11.7845 20.52
371 2 2.2208 13.6076 7.63009 19.1335
467 2 2.2208 5.31688 18.9808 16.3391
468 1 -1.1104 1.14026 14.7072 17.7676
469 1 -1.1104 1.14005 20.3591 17.7932
470 1 -1.1104 1.17142 14.5908 15.1109
471 1 -1.1104 1.22858 20.181 14.8494
472 1 -1.1104 1.12708 17.5068 17.8364
473 2 2.2208 5.3327 16.1381 19.1588
474 2 2.2208 5.43561 21.6467 19.0803
475 1 -1.1104 1.16437 17.3346 14.9077
476 1 -1.1104 4.0118 14.7375 17.5807
477 1 -1.1104 4.05903 20.372 17.7309
478 2 2.2208 2.52701 18.8994 19.192
479 1 -1.1104 3.98176 14.6119 14.8219
480 1 -1.1104 3.87706 20.2016 15.0479
481 2 2.2208 2.63203 16.0999 16.2421
482 2 2.2208 2.63554 21.7517 16.3635
483 1 -1.1104 3.91259 17.5988 17.8673
484 1 -1.1104 4.03089 17.4465 15.159
487 1 -1.1104 6.65039 20.3912 14.83
657 1 -1.1104 1.10744 17.5562 20.5384
488 1 -1.1104 1.02846 14.8662 20.6403
656 1 -1.1104 3.7943 14.6958 20.4262
654 1 -1.1104 3.99021 20.2587 20.4733
598 1 -1.1104 6.61599 14.7195 20.524
9291 2 2.2208 -0.231143 18.8179 16.3462
498 1 -1.1104 6.69553 17.516 17.6027
486 1 -1.1104 6.69223 17.4377 14.9044
9515 2 2.2208 -0.141125 21.694 19.181
9319 2 2.2208 -0.236387 16.1697 19.0727
655 1 -1.1104 1.13317 20.3425 20.512
660 1 -1.1104 6.76796 17.4344 20.4017
497 1 -1.1104 6.83593 14.7309 17.7925
491 1 -1.1104 6.8216 14.6762 14.9691
485 1 -1.1104 6.81573 20.2635 17.645
500 2 2.2208 10.997 18.8934 16.2418
501 1 -1.1104 12.2525 14.8237 17.7054
502 1 -1.1104 12.3654 20.2667 17.6936
503 1 -1.1104 12.5148 14.6997 14.9236
504 1 -1.1104 12.21 20.2651 14.9205
505 1 -1.1104 12.3817 17.5131 17.777
506 2 2.2208 10.9262 16.131 19.2755
507 2 2.2208 11.0059 21.6535 19.1377
508 1 -1.1104 12.3217 17.3802 15.0044
509 1 -1.1104 9.53954 14.7402 17.7059
510 1 -1.1104 9.50296 20.2704 17.7335
511 2 2.2208 8.20336 18.8573 19.2543
512 1 -1.1104 9.51746 14.7279 14.8133
513 1 -1.1104 9.55902 20.2417 14.8794
514 2 2.2208 8.15216 16.2197 16.3284
515 2 2.2208 8.10938 21.6777 16.2473
516 1 -1.1104 9.47558 17.4465 17.6939
517 1 -1.1104 9.5186 17.5759 14.9518
523 1 -1.1104 9.47592 17.5364 20.6187
524 1 -1.1104 9.45828 14.6977 20.4558
518 1 -1.1104 12.3199 20.232 20.3778
519 1 -1.1104 9.62406 20.3084 20.6391
521 1 -1.1104 12.235 17.4635 20.4895
520 1 -1.1104 6.7411 20.347 20.4748
334 2 2.2208 5.29932 2.18342 27.4182
336 2 2.2208 2.44145 4.81973 27.5186
534 2 2.2208 5.35473 2.3017 21.8499
535 1 -1.1104 1.02692 -2.15472 23.2133
536 1 -1.1104 0.994829 3.453 23.2185
537 1 -1.1104 1.03387 -2.1387 25.9664
538 1 -1.1104 0.926766 3.60042 26.1579
539 1 -1.1104 0.930251 0.681819 23.3245
540 2 2.2208 5.35252 -0.566909 24.5969
541 1 -1.1104 1.16813 0.802792 26.0925
542 1 -1.1104 3.85656 -1.97545 23.3286
543 1 -1.1104 3.777 3.57585 23.2948
544 2 2.2208 2.40072 2.09123 24.6711
545 1 -1.1104 3.84106 -1.97135 26.0345
546 1 -1.1104 3.8157 3.58099 26.0995
547 2 2.2208 2.50694 -0.67136 21.8647
548 1 -1.1104 3.83332 0.799292 23.3071
549 1 -1.1104 3.96152 0.791305 26.0144
550 2 2.2208 5.15785 4.7974 24.7313
551 2 2.2208 2.44679 5.02097 21.8834
571 1 -1.1104 6.64211 3.63758 26.1272
565 1 -1.1104 6.61425 0.851975 23.1548
554 1 -1.1104 6.6874 3.58258 23.269
335 2 2.2208 2.43811 -0.63436 27.4812
566 1 -1.1104 6.5819 -1.93103 26.0615
490 2 2.2208 2.44847 -3.42745 24.5668
532 2 2.2208 5.23819 -3.35821 21.8767
329 2 2.2208 5.23764 -3.43947 27.3417
563 2 2.2208 13.5933 2.26098 24.609
567 1 -1.1104 6.76818 0.793192 25.908
555 2 2.2208 10.9067 -3.38476 21.9924
572 1 -1.1104 6.7977 -2.01561 23.2604
574 2 2.2208 10.9287 2.19747 21.8023
575 1 -1.1104 12.4172 -1.91856 23.3431
576 1 -1.1104 12.2846 3.63201 23.2708
577 1 -1.1104 12.181 -1.9231 26.1344
578 1 -1.1104 12.2432 3.47681 25.8962
579 1 -1.1104 12.1314 0.942246 23.2223
580 2 2.2208 10.8329 -0.605674 24.777
581 1 -1.1104 12.3584 0.816158 25.9469
582 1 -1.1104 9.49761 -2.04247 23.3443
583 1 -1.1104 9.34885 3.57968 23.1822
584 2 2.2208 8.1174 2.24904 24.6236
585 1 -1.1104 9.32151 -2.09786 26.1367
586 1 -1.1104 9.31793 3.72239 25.9752
587 2 2.2208 8.06404 -0.583212 21.9339
588 1 -1.1104 9.38386 0.881139 23.3152
589 1 -1.1104 9.51979 0.693494 26.1129
590 2 2.2208 8.05656 5.02457 21.917
591 2 2.2208 10.8438 5.03263 24.5497
337 2 2.2208 13.5803 4.92103 27.3659
340 2 2.2208 8.09478 4.9974 27.3988
338 2 2.2208 10.8274 -3.42851 27.559
342 2 2.2208 10.8143 2.12147 27.4807
553 2 2.2208 8.05111 -3.4387 24.6486
341 2 2.2208 8.06299 -0.636963 27.4675
343 2 2.2208 2.33744 10.5133 27.3926
604 2 2.2208 5.25166 7.70281 21.92
605 2 2.2208 5.33538 13.3295 21.8761
606 1 -1.1104 1.03473 9.05229 23.2705
607 1 -1.1104 1.02918 9.01431 26.0927
608 1 -1.1104 1.00585 6.25399 23.2629
609 1 -1.1104 1.02129 12.0796 23.191
610 2 2.2208 5.23341 10.3907 24.7523
611 1 -1.1104 1.2642 6.27208 26.0102
612 1 -1.1104 1.02759 11.8219 26.0238
613 1 -1.1104 3.91183 9.15354 23.289
614 2 2.2208 2.4256 7.75767 24.6468
615 2 2.2208 2.38762 13.3368 24.7725
616 1 -1.1104 3.87093 9.11345 26.1095
617 2 2.2208 2.4701 10.6197 21.8045
618 1 -1.1104 3.73354 6.43275 23.2287
619 1 -1.1104 3.82912 11.9129 23.3269
620 1 -1.1104 3.82412 6.31817 26.0575
621 1 -1.1104 3.79892 11.9228 26.0308
632 1 -1.1104 6.63363 6.18313 23.448
630 1 -1.1104 6.64713 11.9069 26.037
345 2 2.2208 5.2358 7.59315 27.4701
631 1 -1.1104 6.63577 11.8644 23.2901
624 1 -1.1104 6.6116 9.02465 26.0921
346 2 2.2208 5.31493 13.3692 27.5562
623 1 -1.1104 6.72255 6.26005 26.0411
333 2 2.2208 13.6075 10.6089 27.5421
633 1 -1.1104 6.7186 8.97804 23.251
634 1 -1.1104 9.39375 9.09026 23.3179
635 1 -1.1104 12.2352 11.9918 26.0678
636 1 -1.1104 12.3164 6.30057 25.8995
637 2 2.2208 10.8373 10.6004 24.7946
638 1 -1.1104 12.2534 12.0022 23.3216
639 1 -1.1104 12.2028 6.38758 23.2836
640 1 -1.1104 12.3088 9.15247 26.0872
641 1 -1.1104 12.2324 9.19207 23.3667
642 1 -1.1104 9.40526 11.9318 26.2049
643 1 -1.1104 9.54364 6.49961 25.994
644 1 -1.1104 9.47564 11.975 23.2088
645 1 -1.1104 9.34311 6.39944 23.2339
646 2 2.2208 8.00626 10.5013 21.9276
647 1 -1.1104 9.41997 9.29713 26.0403
648 2 2.2208 8.08005 13.2202 24.7857
649 2 2.2208 8.05861 7.81954 24.713
650 2 2.2208 10.8086 7.82242 21.963
651 2 2.2208 10.8262 13.3075 21.8487
381 2 2.2208 13.6138 10.6246 21.8776
348 2 2.2208 7.96167 10.4717 27.4924
349 2 2.2208 10.8718 7.67091 27.4236
330 2 2.2208 10.9067 13.3078 27.4688
492 1 -1.1104 3.85167 17.4625 20.7773
9346 2 2.2208 -0.193544 21.7178 24.6169
625 1 -1.1104 6.53602 17.4798 26.237
529 1 -1.1104 6.63157 17.4301 23.2491
350 2 2.2208 2.50287 16.0057 27.4746
652 1 -1.1104 1.06106 14.6249 26.0812
653 2 2.2208 5.41649 21.6695 24.7945
658 2 2.2208 5.33429 16.0498 24.6759
661 1 -1.1104 4.02811 20.2986 23.2168
662 1 -1.1104 3.8141 14.779 23.2198
663 1 -1.1104 1.11509 20.2766 26.1484
664 1 -1.1104 1.11548 17.2883 26.1797
665 2 2.2208 2.4268 16.0394 21.9169
666 2 2.2208 2.59994 21.692 21.9135
667 1 -1.1104 3.88073 17.5686 23.4937
668 1 -1.1104 1.07576 17.4391 23.3405
669 1 -1.1104 3.94154 14.652 26.0702
670 1 -1.1104 3.72474 17.336 26.1383
671 2 2.2208 2.44575 18.8167 24.8202
672 1 -1.1104 4.01612 20.1729 26.2719
673 2 2.2208 5.26503 18.8984 21.9908
674 1 -1.1104 0.855418 14.5979 23.3947
675 1 -1.1104 1.31024 20.1791 23.2526
9250 2 2.2208 -0.247494 18.9297 21.8694
328 2 2.2208 2.4613 21.6258 27.522
593 1 -1.1104 9.50293 14.792 23.3513
494 1 -1.1104 12.2687 14.7361 23.2946
493 1 -1.1104 12.1986 20.2711 23.1813
629 2 2.2208 8.07533 18.8309 24.6451
599 2 2.2208 10.9157 16.0597 24.7622
557 1 -1.1104 9.53525 17.5527 26.2774
568 1 -1.1104 9.55498 20.2769 26.1076
496 2 2.2208 8.22943 16.0405 21.8269
499 1 -1.1104 12.1956 14.6796 20.6445
527 1 -1.1104 9.54416 20.313 23.3263
594 2 2.2208 8.09108 21.6728 21.9709
659 1 -1.1104 6.84668 14.6627 23.2681
530 1 -1.1104 6.72828 14.588 26.2343
600 1 -1.1104 12.2005 20.3221 26.1187
522 1 -1.1104 12.3127 14.7288 26.0411
628 1 -1.1104 12.443 17.4785 26.1285
526 1 -1.1104 9.40706 14.7221 26.0078
495 2 2.2208 10.9662 18.897 21.9851
528 1 -1.1104 12.2414 17.4903 23.3155
627 1 -1.1104 6.83873 20.2534 23.4194
525 1 -1.1104 6.84665 20.2251 26.0738
331 2 2.2208 10.9823 18.9513 27.4999
622 1 -1.1104 9.44424 17.5271 23.3555
327 2 2.2208 8.06225 15.9918 27.5203
552 2 2.2208 10.9207 21.656 24.6592
332 2 2.2208 13.5706 21.7011 27.4586
430 2 2.2208 13.6593 16.0789 21.9128
626 2 2.2208 13.5456 21.6379 21.7661
701 2 2.2208 5.30884 24.4366 5.37384
702 2 2.2208 5.21698 30.1327 5.1769
703 1 -1.1104 1.09684 25.7742 1.01477
704 1 -1.1104 1.02036 25.8457 3.81851
705 1 -1.1104 0.931882 22.9841 0.99836
706 1 -1.1104 1.17099 28.6581 0.993104
707 2 2.2208 5.31717 27.3053 2.50843
708 1 -1.1104 1.23148 22.9305 3.70478
709 1 -1.1104 1.09331 28.726 3.7453
710 1 -1.1104 3.9197 25.9439 1.02557
711 2 2.2208 2.46108 24.4074 2.49573
712 2 2.2208 2.53257 30.1614 2.39878
713 1 -1.1104 3.89255 25.9332 3.88815
714 2 2.2208 2.44634 27.296 5.14075
715 1 -1.1104 3.90258 22.8946 1.19196
716 1 -1.1104 3.87693 28.7253 1.05276
717 1 -1.1104 4.01902 23.1029 3.98533
718 1 -1.1104 3.90095 28.733 3.79459
733 1 -1.1104 6.54357 28.652 4.02741
719 1 -1.1104 6.63287 28.555 1.20772
732 1 -1.1104 6.66341 25.877 1.1746
728 1 -1.1104 1.01858 26.0058 6.63807
721 1 -1.1104 1.17682 28.7798 6.56358
883 1 -1.1104 3.90688 28.7842 6.60018
722 1 -1.1104 1.02936 23.0228 6.68453
723 1 -1.1104 3.75521 25.9035 6.63976
9633 2 2.2208 -0.266512 30.0542 5.08946
1027 2 2.2208 5.29714 29.9493 -0.233041
1025 2 2.2208 5.30098 24.5175 -0.246263
726 1 -1.1104 6.78789 22.9707 3.90687
727 1 -1.1104 6.80141 25.827 3.95482
880 1 -1.1104 6.72197 25.7932 6.64734
881 1 -1.1104 6.70855 28.6469 6.6825
731 1 -1.1104 6.84952 23.1007 1.09587
735 2 2.2208 10.871 24.4447 5.22612
736 2 2.2208 10.8857 29.9912 5.32642
737 1 -1.1104 12.2917 25.8485 1.07089
738 1 -1.1104 12.1699 25.7899 3.90846
739 1 -1.1104 12.3113 22.9836 0.972479
740 1 -1.1104 12.2144 28.5537 0.967397
741 2 2.2208 10.8086 27.146 2.42973
742 1 -1.1104 12.255 23.0176 3.89209
743 1 -1.1104 12.2262 28.5221 3.79272
744 1 -1.1104 9.51524 25.8047 0.877961
745 2 2.2208 8.10496 24.4434 2.5398
746 2 2.2208 8.01692 29.9909 2.47466
747 1 -1.1104 9.50381 25.8855 3.8322
748 2 2.2208 8.04949 27.2687 5.38948
749 1 -1.1104 9.72529 23.0922 0.993682
750 1 -1.1104 9.4594 28.6671 1.13722
751 1 -1.1104 9.46529 23.0924 3.80412
752 1 -1.1104 9.31989 28.4746 3.86272
849 2 2.2208 13.5865 27.2666 5.17516
756 1 -1.1104 12.3321 28.5662 6.64968
754 1 -1.1104 12.1799 25.8901 6.5917
758 1 -1.1104 12.2924 23.0184 6.56451
753 1 -1.1104 9.44866 23.0422 6.64048
757 1 -1.1104 9.48553 25.9763 6.64003
734 2 2.2208 13.5361 30.0488 2.39259
1032 2 2.2208 8.03028 27.1193 -0.258851
760 2 2.2208 5.06197 35.6286 5.29601
761 1 -1.1104 1.1167 31.4106 0.846892
762 1 -1.1104 1.0531 36.9846 0.7975
763 1 -1.1104 1.04192 31.4709 3.7996
764 1 -1.1104 1.1404 37.03 3.73367
765 1 -1.1104 1.0835 34.2294 0.909846
766 2 2.2208 5.25257 32.904 2.40617
767 2 2.2208 5.22068 38.3417 2.42649
768 1 -1.1104 1.02053 34.2767 3.73237
769 1 -1.1104 3.9602 31.4054 1.14379
770 1 -1.1104 3.83079 37.0549 0.915099
771 2 2.2208 2.48077 35.5602 2.31776
772 1 -1.1104 3.86098 31.663 3.75827
773 1 -1.1104 3.776 37.0223 3.77117
774 2 2.2208 2.33593 32.8884 5.14392
775 2 2.2208 2.44813 38.4685 5.09386
776 1 -1.1104 3.86268 34.1553 0.971391
777 1 -1.1104 3.94953 34.3916 3.71686
780 1 -1.1104 6.69107 37.013 1.07018
786 1 -1.1104 3.85388 31.6053 6.55429
792 1 -1.1104 6.54463 31.4565 1.00721
936 1 -1.1104 1.06341 36.985 6.44456
779 1 -1.1104 6.56753 37.0847 3.85989
784 1 -1.1104 3.79065 34.3132 6.66802
787 1 -1.1104 6.59529 31.3467 6.60859
778 1 -1.1104 3.86045 37.1103 6.48711
782 1 -1.1104 1.12229 31.4039 6.63823
783 1 -1.1104 1.06437 34.1589 6.64885
789 1 -1.1104 6.64022 34.2374 3.83275
1034 2 2.2208 5.34718 35.6351 -0.258968
781 1 -1.1104 6.73595 34.3825 1.13292
790 1 -1.1104 6.73134 31.4307 3.77677
793 2 2.2208 10.9008 35.5311 5.28972
794 1 -1.1104 12.1544 31.465 0.962828
795 1 -1.1104 12.1161 36.9811 1.04733
796 1 -1.1104 12.1563 31.2849 3.78505
797 1 -1.1104 12.2605 36.8685 3.86072
798 1 -1.1104 12.273 34.1563 0.947531
799 2 2.2208 10.7643 32.8345 2.52859
800 2 2.2208 10.7581 38.3937 2.41497