ITEM: TIMESTEP
380
ITEM: NUMBER OF ATOMS
17728
ITEM: BOX BOUNDS pp pp pp
-2.7717828229332220e-01 2.7617178282293317e+01
-3.4472205766305355e+00 3.3152722057663055e+02
-2.7717827830221448e-01 2.7617178278302212e+01
ITEM: ATOMS id type q x y z
1 2 2.2208 5.25419 2.13718 5.33318
2 1 -1.1104 1.06514 -2.0477 1.14837
3 1 -1.1104 1.07167 3.53057 1.14884
4 1 -1.1104 1.06516 -2.04775 3.93848
5 1 -1.1104 1.07171 3.53057 3.93897
6 1 -1.1104 1.06842 0.741414 1.14929
7 2 2.2208 5.25094 -0.65186 2.54349
8 1 -1.1104 1.06833 0.741413 3.93802
9 1 -1.1104 3.85464 -2.04775 1.14901
10 1 -1.1104 3.86117 3.53043 1.14951
11 2 2.2208 2.46475 2.13732 2.54377
12 1 -1.1104 3.85458 -2.04778 3.93777
13 1 -1.1104 3.86108 3.53042 3.93825
14 2 2.2208 2.46149 -0.651833 5.33296
15 2 2.2208 2.46808 4.92644 5.33347
16 1 -1.1104 3.85781 0.741357 1.14857
17 1 -1.1104 3.85782 0.741308 3.93868
18 2 2.2208 5.25754 4.92633 2.54404
322 2 2.2208 13.6398 16.0834 10.9131
27 1 -1.1104 1.06516 -2.04774 6.72724
320 2 2.2208 13.6259 4.92642 5.33368
34 1 -1.1104 6.64734 0.741305 1.14925
150 2 2.2208 5.24783 -3.44099 5.33267
144 2 2.2208 2.45833 -3.44093 2.5433
26 1 -1.1104 3.86116 3.53041 6.7284
21 1 -1.1104 1.07165 3.53057 6.72772
176 1 -1.1104 3.8578 0.741271 6.72744
31 1 -1.1104 6.65057 3.53038 1.14882
30 1 -1.1104 6.6441 -2.04776 1.14829
33 1 -1.1104 6.64411 -2.04783 3.93839
29 1 -1.1104 6.64723 0.74126 3.93797
23 1 -1.1104 6.65059 3.53035 3.93897
35 2 2.2208 10.8331 2.13716 5.33323
36 1 -1.1104 12.2231 -2.04774 1.14828
37 1 -1.1104 12.2295 3.53048 1.14893
38 1 -1.1104 12.2231 -2.04784 3.93837
39 1 -1.1104 12.2295 3.53041 3.93912
40 1 -1.1104 12.2263 0.741379 1.14931
41 2 2.2208 10.8299 -0.651855 2.54347
42 1 -1.1104 12.2262 0.741294 3.938
43 1 -1.1104 9.43364 -2.04777 1.14894
44 1 -1.1104 9.44011 3.53041 1.14961
45 2 2.2208 8.04365 2.13722 2.54377
46 1 -1.1104 9.43356 -2.04785 3.93769
47 1 -1.1104 9.43999 3.53033 3.93832
48 2 2.2208 8.04042 -0.651963 5.33289
49 1 -1.1104 9.43676 0.741338 1.14856
50 1 -1.1104 9.43675 0.74124 3.93868
51 2 2.2208 8.04697 4.92625 5.33354
52 2 2.2208 10.8365 4.92634 2.54418
32 1 -1.1104 6.6441 -2.04788 6.72716
212 1 -1.1104 9.43673 0.741163 6.72742
86 2 2.2208 10.8268 -3.44106 5.33261
58 1 -1.1104 12.2263 0.741212 6.72814
56 1 -1.1104 6.65055 3.53028 6.72771
57 1 -1.1104 9.44007 3.53029 6.72849
54 1 -1.1104 12.2231 -2.04794 6.72712
202 1 -1.1104 12.2295 3.53033 6.72781
55 1 -1.1104 9.43365 -2.04791 6.72779
24 2 2.2208 13.6465 21.6623 10.913
261 2 2.2208 8.06439 18.8715 8.12384
109 2 2.2208 8.03732 -3.44097 2.5432
80 2 2.2208 13.6163 -3.44098 2.5432
60 2 2.2208 5.26092 7.7154 5.33379
61 2 2.2208 5.26786 13.2935 5.33427
62 1 -1.1104 1.07841 9.1088 1.14937
63 1 -1.1104 1.07846 9.1089 3.93949
64 1 -1.1104 1.07509 6.31968 1.14978
65 1 -1.1104 1.0819 11.8979 1.15031
66 2 2.2208 5.26436 10.5044 2.54464
67 1 -1.1104 1.07502 6.31975 3.93855
68 1 -1.1104 1.08186 11.898 3.93904
69 1 -1.1104 3.86792 9.10858 1.15009
70 2 2.2208 2.47146 7.71556 2.54432
71 2 2.2208 2.47836 13.2937 2.54481
72 1 -1.1104 3.86786 9.1086 3.93882
73 2 2.2208 2.47489 10.5047 5.33398
74 1 -1.1104 3.86445 6.31952 1.14909
75 1 -1.1104 3.87129 11.8976 1.14966
76 1 -1.1104 3.86451 6.31951 3.93924
77 1 -1.1104 3.87138 11.8977 3.93979
239 1 -1.1104 3.86789 9.10865 6.72894
236 1 -1.1104 1.08191 11.898 6.72913
235 1 -1.1104 1.07837 9.10892 6.72821
234 1 -1.1104 3.86444 6.31952 6.72798
78 1 -1.1104 6.65398 6.31945 1.14985
81 1 -1.1104 6.66083 11.8974 1.15041
146 1 -1.1104 12.2469 17.4764 9.51803
88 1 -1.1104 6.65732 9.10844 1.14944
82 1 -1.1104 6.65396 6.3194 6.72874
79 1 -1.1104 6.6539 6.31942 3.93857
87 1 -1.1104 6.6608 11.8975 3.93913
84 1 -1.1104 6.66087 11.8975 6.72929
89 1 -1.1104 6.65739 9.10848 3.93963
90 2 2.2208 10.8398 7.71538 5.33398
91 2 2.2208 10.8468 13.2935 5.33431
92 1 -1.1104 12.2363 9.10852 1.14955
93 1 -1.1104 12.2363 9.10858 3.93982
94 1 -1.1104 12.2329 6.31952 1.15002
95 1 -1.1104 12.2398 11.8975 1.15049
96 2 2.2208 10.8433 10.5044 2.54475
97 1 -1.1104 12.2328 6.31951 3.93874
98 1 -1.1104 12.2398 11.8976 3.93917
99 1 -1.1104 9.44687 9.10844 1.15026
100 2 2.2208 8.05037 7.71534 2.54444
101 2 2.2208 8.0573 13.2933 2.54488
102 1 -1.1104 9.4468 9.10845 3.93898
103 2 2.2208 8.05383 10.5044 5.33414
104 1 -1.1104 9.44339 6.31944 1.14921
105 1 -1.1104 9.45026 11.8974 1.1497
106 1 -1.1104 9.44344 6.31942 3.93942
107 1 -1.1104 9.45035 11.8975 3.93992
321 2 2.2208 13.6194 -0.651886 5.33291
108 1 -1.1104 12.2329 6.3195 6.72895
113 1 -1.1104 9.44685 9.1085 6.72918
111 1 -1.1104 6.65731 9.10848 6.72833
112 1 -1.1104 12.2398 11.8978 6.72941
110 1 -1.1104 12.2362 9.10864 6.72847
115 1 -1.1104 9.44336 6.31937 6.72812
19 2 2.2208 13.6433 18.8724 8.12374
120 2 2.2208 5.27479 18.8714 5.33447
121 1 -1.1104 1.08529 14.687 1.14982
122 1 -1.1104 1.09215 20.265 1.14998
123 1 -1.1104 1.08541 14.6871 3.93992
124 1 -1.1104 1.0921 20.2651 3.93999
125 1 -1.1104 1.08882 17.476 1.15063
126 2 2.2208 5.27129 16.0824 2.54502
127 2 2.2208 5.27816 21.6602 2.54501
128 1 -1.1104 1.0888 17.4761 3.93939
129 1 -1.1104 3.8748 14.6866 1.15056
130 1 -1.1104 3.88168 20.2644 1.15068
131 2 2.2208 2.48526 18.8717 2.54505
132 1 -1.1104 3.87482 14.6867 3.93928
133 1 -1.1104 3.88165 20.2645 3.93942
134 2 2.2208 2.48188 16.0828 5.33438
135 2 2.2208 2.48851 21.6607 5.33429
136 1 -1.1104 3.87823 17.4755 1.15001
137 1 -1.1104 3.8783 17.4757 3.94009
148 1 -1.1104 6.66778 17.4754 3.93943
141 1 -1.1104 6.66424 14.6864 1.14987
288 1 -1.1104 3.8749 14.6867 6.72938
140 1 -1.1104 6.66435 14.6865 3.94004
138 1 -1.1104 3.87835 17.4756 6.72882
145 1 -1.1104 3.88164 20.2645 6.72945
349 2 2.2208 10.8538 18.8711 -0.244418
326 2 2.2208 13.6467 21.6605 -0.244602
289 1 -1.1104 1.09213 20.2651 6.72881
143 1 -1.1104 6.66791 17.4755 6.72955
173 1 -1.1104 6.67126 20.2643 6.72879
152 1 -1.1104 6.67123 20.2642 3.94013
171 1 -1.1104 9.46086 20.2645 6.72958
142 1 -1.1104 6.66778 17.4753 1.15072
147 1 -1.1104 6.67123 20.2641 1.15
153 2 2.2208 10.8538 18.8716 5.33443
154 1 -1.1104 12.2432 14.6865 1.14977
155 1 -1.1104 12.2503 20.2644 1.14983
156 1 -1.1104 12.2434 14.6867 3.94004
157 1 -1.1104 12.2503 20.2647 3.94014
158 1 -1.1104 12.2468 17.4754 1.15065
159 2 2.2208 10.8503 16.0824 2.54498
160 2 2.2208 10.8573 21.6603 2.545
161 1 -1.1104 12.2468 17.4757 3.93928
162 1 -1.1104 9.45378 14.6863 1.15059
163 1 -1.1104 9.4608 20.264 1.15074
164 2 2.2208 8.06428 18.8712 2.54509
165 1 -1.1104 9.45381 14.6865 3.93926
166 1 -1.1104 9.46078 20.2643 3.93937
167 2 2.2208 8.06086 16.0824 5.33443
168 2 2.2208 8.06771 21.6602 5.33441
169 1 -1.1104 9.45724 17.4752 1.14992
170 1 -1.1104 9.45736 17.4754 3.94016
20 2 2.2208 13.6467 21.6612 5.33434
290 1 -1.1104 12.247 17.476 6.72951
174 1 -1.1104 9.45391 14.6866 6.72947
172 1 -1.1104 12.2433 14.6869 6.72863
233 1 -1.1104 9.45739 17.4756 6.72875
149 1 -1.1104 6.66436 14.6865 6.7287
323 2 2.2208 13.6363 13.2936 2.54486
85 2 2.2208 5.24801 -3.44101 10.9116
22 1 -1.1104 1.06841 0.741406 6.72815
177 1 -1.1104 3.85468 -2.04782 6.72788
325 2 2.2208 13.6327 10.5047 5.33422
348 2 2.2208 8.06077 16.0822 -0.244426
179 2 2.2208 5.25432 2.13716 10.9121
180 1 -1.1104 1.06537 -2.0477 12.3061
181 1 -1.1104 1.07173 3.5306 12.3066
182 1 -1.1104 1.06531 -2.04771 9.51735
183 1 -1.1104 1.07173 3.5306 9.51781
184 1 -1.1104 1.06858 0.741459 12.307
185 2 2.2208 5.25102 -0.651934 8.12236
186 2 2.2208 5.25754 4.92628 8.12291
187 1 -1.1104 1.06842 0.741423 9.5169
188 1 -1.1104 3.85489 -2.04779 12.3068
189 1 -1.1104 3.86124 3.53041 12.3072
190 2 2.2208 2.46478 2.1373 8.12262
191 1 -1.1104 3.85472 -2.04779 9.51667
192 1 -1.1104 3.86114 3.5304 9.51713
193 2 2.2208 2.46165 -0.651813 10.9118
194 2 2.2208 2.46809 4.92645 10.9123
195 1 -1.1104 3.858 0.741286 12.3063
196 1 -1.1104 3.85794 0.741308 9.51756
208 1 -1.1104 6.64737 0.741163 9.51687
211 1 -1.1104 6.65067 3.53025 12.3066
53 1 -1.1104 6.64732 0.741195 6.72811
204 1 -1.1104 6.64426 -2.04789 9.51729
116 2 2.2208 2.45843 -3.44095 8.12217
330 2 2.2208 2.48183 16.0826 -0.244437
331 2 2.2208 5.27478 18.8712 -0.244324
232 2 2.2208 13.6398 16.0829 5.33434
324 2 2.2208 13.6363 13.294 8.12369
341 2 2.2208 13.6327 10.5045 -0.244745
200 2 2.2208 10.827 -3.44114 10.9115
209 1 -1.1104 6.65067 3.53028 9.51784
347 2 2.2208 2.48862 21.6605 -0.244445
345 2 2.2208 10.8467 13.2933 -0.244592
207 1 -1.1104 6.64754 0.741182 12.307
332 2 2.2208 8.05379 10.5043 -0.244774
210 1 -1.1104 6.64434 -2.04788 12.3061
213 2 2.2208 10.8333 2.13709 10.9121
214 1 -1.1104 12.2233 -2.04797 12.306
215 1 -1.1104 12.2296 3.53034 12.3066
216 1 -1.1104 12.2232 -2.04793 9.51725
217 1 -1.1104 12.2296 3.53035 9.51796
218 1 -1.1104 12.2265 0.741195 12.307
219 2 2.2208 10.83 -0.652011 8.12233
220 1 -1.1104 12.2263 0.741164 9.51686
221 1 -1.1104 9.4339 -2.04793 12.3067
222 1 -1.1104 9.44022 3.53026 12.3073
223 2 2.2208 8.0437 2.13708 8.12263
224 1 -1.1104 9.43371 -2.04796 9.51658
225 1 -1.1104 9.44007 3.53022 9.51719
226 2 2.2208 8.04062 -0.652022 10.9118
227 2 2.2208 8.04705 4.92619 10.9124
228 1 -1.1104 9.43697 0.741123 12.3063
229 1 -1.1104 9.43691 0.741134 9.51755
230 2 2.2208 10.8365 4.92625 8.12304
198 2 2.2208 8.03741 -3.44108 8.12208
206 1 -1.1104 9.46095 20.2649 12.3083
25 2 2.2208 13.6432 18.8717 2.54497
83 1 -1.1104 1.07504 6.31973 6.72866
203 2 2.2208 13.6293 7.71556 8.12343
343 2 2.2208 2.47486 10.5046 -0.244854
329 2 2.2208 5.26779 13.2934 -0.244577
238 2 2.2208 13.6196 -0.651976 10.9118
237 1 -1.1104 3.87133 11.8977 6.72849
240 2 2.2208 5.26089 7.71537 10.9126
241 2 2.2208 5.26786 13.2935 10.9131
242 1 -1.1104 1.0783 9.10888 12.307
243 1 -1.1104 1.07838 9.10891 9.51829
244 1 -1.1104 1.07501 6.31974 12.3075
245 1 -1.1104 1.08178 11.8979 12.3079
246 2 2.2208 5.26435 10.5045 8.12346
247 1 -1.1104 1.07497 6.31976 9.51738
248 1 -1.1104 1.0818 11.898 9.51784
249 1 -1.1104 3.86782 9.10858 12.3078
250 2 2.2208 2.47142 7.7156 8.12315
251 2 2.2208 2.47839 13.2938 8.12361
252 1 -1.1104 3.8678 9.10863 9.51764
253 2 2.2208 2.47482 10.5047 10.9128
254 1 -1.1104 3.86443 6.31949 12.3068
255 1 -1.1104 3.87126 11.8976 12.3073
256 1 -1.1104 3.86449 6.31953 9.51807
257 1 -1.1104 3.87134 11.8977 9.51861
259 1 -1.1104 6.6608 11.8975 12.3081
258 1 -1.1104 6.6608 11.8975 9.51794
327 2 2.2208 8.06777 21.6598 -0.244379
262 2 2.2208 13.6226 2.13719 8.12271
114 1 -1.1104 9.45032 11.8976 6.72857
264 1 -1.1104 6.65391 6.31936 9.51745
266 1 -1.1104 6.65733 9.10848 9.51847
263 1 -1.1104 6.65727 9.10843 12.3071
339 2 2.2208 13.6397 16.0825 -0.244544
28 2 2.2208 13.6164 -3.44113 8.12207
265 1 -1.1104 6.65397 6.31935 12.3076
267 1 -1.1104 9.45032 11.8976 9.51877
268 1 -1.1104 9.44344 6.31937 9.51828
269 1 -1.1104 9.45027 11.8977 12.3073
270 1 -1.1104 9.44339 6.31936 12.3069
271 2 2.2208 8.05379 10.5044 10.9129
272 1 -1.1104 9.44676 9.1085 9.51781
273 2 2.2208 8.05737 13.2935 8.12369
274 2 2.2208 8.05036 7.71532 8.1233
275 2 2.2208 10.8398 7.71541 10.9128
276 2 2.2208 10.8468 13.2938 10.9131
277 1 -1.1104 12.2362 9.10875 12.3072
278 1 -1.1104 12.2363 9.10872 9.51866
279 1 -1.1104 12.2329 6.31954 12.3077
280 1 -1.1104 12.2397 11.898 12.3082
281 2 2.2208 10.8433 10.5045 8.12361
282 1 -1.1104 12.2328 6.31951 9.51759
283 1 -1.1104 12.2397 11.8979 9.51798
284 1 -1.1104 9.44679 9.10853 12.308
315 1 -1.1104 12.2504 20.2656 9.51894
287 2 2.2208 13.6226 2.13735 2.54386
59 1 -1.1104 9.45391 14.6868 9.51804
291 1 -1.1104 1.08538 14.6871 6.72866
139 1 -1.1104 1.08885 17.4761 6.72944
231 1 -1.1104 6.66803 17.4754 12.3083
310 1 -1.1104 6.66444 14.6866 9.51887
312 2 2.2208 13.6293 7.71552 2.54454
292 1 -1.1104 1.08889 17.4759 12.3083
293 2 2.2208 2.48195 16.0827 10.9132
294 2 2.2208 2.48843 21.6604 10.9131
295 1 -1.1104 3.87848 17.4754 12.3076
296 1 -1.1104 3.8817 20.2642 12.3082
297 1 -1.1104 3.8749 14.6866 12.3082
298 1 -1.1104 1.09206 20.2649 9.51879
299 1 -1.1104 1.0889 17.476 9.51824
300 2 2.2208 5.27808 21.6602 8.1237
301 1 -1.1104 1.08541 14.6871 9.51876
302 2 2.2208 5.27141 16.0825 8.12381
303 1 -1.1104 1.09214 20.2647 12.3077
304 1 -1.1104 1.08535 14.687 12.3075
305 2 2.2208 5.2749 18.8713 10.9132
306 1 -1.1104 3.88173 20.2644 9.5182
307 2 2.2208 2.4853 18.8717 8.12384
308 1 -1.1104 3.87841 17.4756 9.51891
309 1 -1.1104 3.8749 14.6867 9.5181
118 1 -1.1104 6.66799 17.4755 9.51817
201 2 2.2208 13.626 4.9264 10.9125
285 2 2.2208 13.6327 10.5048 10.913
260 1 -1.1104 9.46088 20.2649 9.51811
286 1 -1.1104 9.45392 14.6868 12.3083
117 2 2.2208 10.8572 21.661 8.12377
316 1 -1.1104 12.247 17.4766 12.3082
151 2 2.2208 8.06771 21.6605 10.9131
313 1 -1.1104 12.2433 14.6873 12.3074
318 1 -1.1104 9.45755 17.4759 12.3075
205 1 -1.1104 12.2503 20.2651 6.72871
119 1 -1.1104 12.2434 14.6871 9.51885
319 2 2.2208 10.8539 18.8721 10.9131
317 1 -1.1104 12.2504 20.2661 12.3074
197 1 -1.1104 6.67142 20.2642 12.3075
175 1 -1.1104 9.45751 17.4758 9.51895
311 1 -1.1104 6.66443 14.6865 12.3075
178 1 -1.1104 6.67131 20.2643 9.51891
199 2 2.2208 10.8504 16.0828 8.12377
314 2 2.2208 8.06098 16.0826 10.9132
336 2 2.2208 10.8332 2.1373 -0.24561
338 2 2.2208 5.24786 -3.44092 -0.246158
335 2 2.2208 5.25426 2.13726 -0.245672
334 2 2.2208 2.46812 4.92643 -0.245418
333 2 2.2208 2.46154 -0.6518 -0.245889
342 2 2.2208 8.04051 -0.651827 -0.245943
337 2 2.2208 8.04704 4.92631 -0.245344
344 2 2.2208 5.26092 7.71538 -0.245107
340 2 2.2208 10.8399 7.71537 -0.244975
346 2 2.2208 13.6195 -0.651758 -0.245899
350 2 2.2208 13.626 4.92644 -0.245246
328 2 2.2208 10.8269 -3.44091 -0.246235
351 2 2.2208 5.25447 2.13716 16.491
352 1 -1.1104 1.06552 -2.04777 17.885
353 1 -1.1104 1.07184 3.53051 17.8854
354 1 -1.1104 1.06552 -2.04771 15.0962
355 1 -1.1104 1.07184 3.53057 15.0967
356 1 -1.1104 1.06873 0.74138 17.8859
357 2 2.2208 5.2513 -0.65192 19.2802
358 1 -1.1104 1.06864 0.741418 15.0958
359 1 -1.1104 3.85502 -2.04783 17.8857
360 1 -1.1104 3.86134 3.53036 17.8861
361 2 2.2208 2.46501 2.13725 19.2804
362 1 -1.1104 3.85494 -2.0478 15.0956
363 1 -1.1104 3.86125 3.53037 15.096
364 2 2.2208 2.46183 -0.651845 16.4907
365 1 -1.1104 3.85814 0.741265 17.8852
366 1 -1.1104 3.85814 0.741301 15.0964
367 2 2.2208 2.46817 4.9264 16.4912
368 2 2.2208 5.25765 4.92626 19.2806
379 1 -1.1104 6.64758 0.741165 15.0958
375 1 -1.1104 6.64446 -2.04788 17.885
403 1 -1.1104 6.64445 -2.04787 20.6751
586 2 2.2208 13.6327 10.5045 22.0706
374 1 -1.1104 3.8549 -2.0478 20.6744
529 1 -1.1104 1.07188 3.53045 20.6755
533 1 -1.1104 3.86129 3.53038 20.6749
369 1 -1.1104 3.85814 0.741279 20.6753
585 2 2.2208 13.6362 13.2935 24.8602
534 1 -1.1104 1.06864 0.741319 20.6747
373 1 -1.1104 1.06549 -2.04783 20.6751
671 2 2.2208 13.6293 7.71555 19.2809
455 2 2.2208 13.6164 -3.44094 24.8587
527 2 2.2208 10.8272 -3.44108 16.4904
371 1 -1.1104 6.65075 3.53028 17.8855
380 1 -1.1104 6.64767 0.741206 17.8859
378 1 -1.1104 6.64449 -2.04789 15.0962
372 1 -1.1104 6.65081 3.5303 20.6756
376 1 -1.1104 6.65077 3.53026 15.0967
381 2 2.2208 10.8334 2.13715 16.491
382 1 -1.1104 12.2234 -2.04788 17.8849
383 1 -1.1104 12.2297 3.53038 17.8855
384 1 -1.1104 12.2235 -2.04791 15.0962
385 1 -1.1104 12.2297 3.53038 15.0968
386 1 -1.1104 12.2266 0.74125 17.8859
387 2 2.2208 10.8303 -0.651928 19.2801
388 2 2.2208 10.8366 4.92627 19.2807
389 1 -1.1104 12.2265 0.741225 15.0958
390 1 -1.1104 9.43402 -2.04791 17.8856
391 1 -1.1104 9.4403 3.53028 17.8862
392 2 2.2208 8.04395 2.13713 19.2804
393 1 -1.1104 9.43394 -2.04792 15.0955
394 1 -1.1104 9.44019 3.53026 15.0961
395 2 2.2208 8.0408 -0.651981 16.4907
396 2 2.2208 8.04711 4.9262 16.4912
397 1 -1.1104 9.4371 0.741193 17.8852
398 1 -1.1104 9.43714 0.741168 15.0965
564 1 -1.1104 9.43713 0.741234 20.6753
401 1 -1.1104 9.44024 3.53032 20.6749
562 1 -1.1104 12.2235 -2.04786 20.6751
672 2 2.2208 13.6229 2.13724 19.2804
400 1 -1.1104 12.2298 3.53036 20.6756
399 1 -1.1104 12.2265 0.741268 20.6746
561 1 -1.1104 9.43389 -2.04784 20.6744
695 2 2.2208 8.06449 18.8715 13.7026
674 2 2.2208 13.6398 16.0826 22.0708
618 2 2.2208 13.6398 16.0833 16.4918
670 2 2.2208 13.626 4.92641 16.4913
406 2 2.2208 5.26088 7.71532 16.4915
407 2 2.2208 5.26782 13.2933 16.4919
408 1 -1.1104 1.0783 9.10872 17.8859
409 1 -1.1104 1.07832 9.10879 15.0971
410 1 -1.1104 1.07506 6.31965 17.8863
411 1 -1.1104 1.08176 11.8978 17.8868
412 2 2.2208 5.26427 10.5043 19.2812
413 1 -1.1104 1.075 6.3197 15.0962
414 1 -1.1104 1.08171 11.8978 15.0967
415 1 -1.1104 3.8678 9.10848 17.8866
416 2 2.2208 2.47143 7.71547 19.2809
417 2 2.2208 2.47832 13.2935 19.2814
418 1 -1.1104 3.86775 9.10853 15.0965
419 2 2.2208 2.47477 10.5045 16.4917
420 1 -1.1104 3.86447 6.31943 17.8857
421 1 -1.1104 3.87121 11.8974 17.8862
422 1 -1.1104 3.8645 6.31949 15.0969
423 1 -1.1104 3.87125 11.8975 15.0975
458 1 -1.1104 6.65731 9.1084 20.6761
377 2 2.2208 5.24806 -3.44099 22.0694
431 1 -1.1104 3.87128 11.8975 20.6764
430 1 -1.1104 1.08175 11.8977 20.6756
460 1 -1.1104 6.65397 6.31936 20.6751
433 1 -1.1104 6.6573 9.1084 15.0973
592 1 -1.1104 6.66073 11.8974 20.6756
591 1 -1.1104 1.07505 6.31959 20.6751
590 1 -1.1104 3.86777 9.10847 20.6754
614 2 2.2208 10.8539 18.8712 22.0709
435 1 -1.1104 6.66076 11.8974 17.8869
429 1 -1.1104 6.65726 9.10841 17.886
427 1 -1.1104 6.66073 11.8974 15.0967
428 1 -1.1104 6.654 6.31937 17.8864
434 1 -1.1104 6.65392 6.31932 15.0963
436 2 2.2208 10.8398 7.71541 16.4915
437 2 2.2208 10.8468 13.2937 16.4919
438 1 -1.1104 12.2362 9.10868 17.886
439 1 -1.1104 12.2362 9.10876 15.0974
440 1 -1.1104 12.2329 6.31954 17.8865
441 1 -1.1104 12.2397 11.8978 17.8869
442 2 2.2208 10.8432 10.5045 19.2812
443 1 -1.1104 12.2329 6.31956 15.0964
444 1 -1.1104 12.2397 11.898 15.0967
445 1 -1.1104 9.44677 9.10847 17.8867
446 2 2.2208 8.05037 7.71529 19.2809
447 2 2.2208 8.0573 13.2933 19.2813
448 1 -1.1104 9.44673 9.10851 15.0966
449 2 2.2208 8.05375 10.5044 16.4917
450 1 -1.1104 9.44342 6.31938 17.8858
451 1 -1.1104 9.45022 11.8976 17.8861
452 1 -1.1104 9.44346 6.31939 15.0971
453 1 -1.1104 9.45025 11.8976 15.0975
459 1 -1.1104 9.44351 6.31939 20.6759
461 1 -1.1104 12.2362 9.10857 20.6762
457 1 -1.1104 9.45022 11.8974 20.6764
462 1 -1.1104 12.2397 11.8977 20.6756
463 1 -1.1104 9.44675 9.10843 20.6754
559 2 2.2208 2.45845 -3.44095 24.8588
456 1 -1.1104 12.2329 6.31948 20.6752
691 2 2.2208 10.8572 21.6614 13.7024
554 2 2.2208 10.8271 -3.44097 22.0693
468 2 2.2208 5.27495 18.871 16.4921
469 1 -1.1104 1.08531 14.6867 17.8864
470 1 -1.1104 1.0922 20.2643 17.8865
471 1 -1.1104 1.08535 14.6868 15.0976
472 1 -1.1104 1.09206 20.2645 15.0976
473 1 -1.1104 1.08891 17.4756 17.8872
474 2 2.2208 5.27142 16.0822 19.2815
475 2 2.2208 5.27815 21.6595 19.2814
476 1 -1.1104 1.08893 17.4757 15.0971
477 1 -1.1104 3.87487 14.6863 17.8871
478 1 -1.1104 3.88176 20.2638 17.8871
479 2 2.2208 2.48539 18.8712 19.2816
480 1 -1.1104 3.87488 14.6864 15.0969
481 1 -1.1104 3.8818 20.264 15.097
482 2 2.2208 2.48194 16.0824 16.4921
483 2 2.2208 2.48842 21.6599 16.4919
484 1 -1.1104 3.87848 17.4752 17.8865
485 1 -1.1104 3.87847 17.4753 15.0978
493 1 -1.1104 6.67138 20.264 15.0977
500 1 -1.1104 6.67146 20.2638 17.8864
486 1 -1.1104 6.66436 14.6863 17.8863
497 1 -1.1104 3.8818 20.2638 20.676
488 1 -1.1104 3.87483 14.6864 20.6759
644 1 -1.1104 3.87844 17.4752 20.6767
426 2 2.2208 8.03745 -3.44091 24.8587
501 1 -1.1104 6.66802 17.4751 17.8872
454 2 2.2208 8.03764 -3.44104 19.2799
496 1 -1.1104 1.09221 20.2644 20.6766
617 1 -1.1104 12.2432 14.6864 26.2554
492 1 -1.1104 6.66442 14.6864 15.0977
503 1 -1.1104 6.66807 17.4753 15.0969
524 1 -1.1104 12.247 17.4757 20.6756
504 2 2.2208 10.854 18.8719 16.4919
505 1 -1.1104 12.2433 14.687 17.8861
506 1 -1.1104 12.2505 20.2653 17.886
507 1 -1.1104 12.2433 14.6872 15.0976
508 1 -1.1104 12.2504 20.2659 15.0975
509 1 -1.1104 12.2469 17.4761 17.887
510 2 2.2208 10.8504 16.0826 19.2814
511 2 2.2208 10.8573 21.6604 19.2812
512 1 -1.1104 12.247 17.4765 15.0967
513 1 -1.1104 9.45387 14.6865 17.8871
514 1 -1.1104 9.46096 20.2644 17.887
515 2 2.2208 8.06448 18.871 19.2815
516 1 -1.1104 9.45392 14.6867 15.0968
517 1 -1.1104 9.46105 20.2648 15.0968
518 2 2.2208 8.06097 16.0824 16.492
519 2 2.2208 8.06776 21.6601 16.4918
520 1 -1.1104 9.45758 17.4755 17.8863
521 1 -1.1104 9.45755 17.4758 15.0977
525 1 -1.1104 12.2433 14.6867 20.6765
490 1 -1.1104 9.45746 17.4752 20.6766
489 1 -1.1104 9.45383 14.6864 20.6757
502 1 -1.1104 6.66436 14.6863 20.6766
523 1 -1.1104 12.2504 20.2646 20.6764
405 2 2.2208 13.6466 21.662 16.4916
487 1 -1.1104 6.66796 17.4751 20.6759
402 1 -1.1104 6.64757 0.741229 20.6747
593 2 2.2208 13.6261 4.92636 22.0701
675 2 2.2208 13.6362 13.2938 19.2813
699 2 2.2208 2.48536 18.8714 13.7026
535 2 2.2208 5.25443 2.1372 22.0698
536 1 -1.1104 1.06532 -2.04776 23.4639
537 1 -1.1104 1.0718 3.53048 23.4643
538 1 -1.1104 1.06527 -2.04774 26.254
539 1 -1.1104 1.07179 3.53053 26.2544
540 1 -1.1104 1.06861 0.741342 23.4648
541 2 2.2208 5.25111 -0.651848 24.859
542 1 -1.1104 1.06845 0.741413 26.2535
543 1 -1.1104 3.85482 -2.04781 23.4645
544 1 -1.1104 3.86132 3.53039 23.465
545 2 2.2208 2.46489 2.13728 24.8593
546 1 -1.1104 3.85467 -2.04775 26.2533
547 1 -1.1104 3.86119 3.53043 26.2537
548 2 2.2208 2.46173 -0.651861 22.0696
549 1 -1.1104 3.85801 0.741306 23.4641
550 1 -1.1104 3.85795 0.741315 26.2542
551 2 2.2208 5.25761 4.92632 24.8595
552 2 2.2208 2.46819 4.92636 22.0701
558 1 -1.1104 6.64756 0.741278 23.4648
587 2 2.2208 13.6293 7.71546 24.8599
555 1 -1.1104 6.64738 0.741339 26.2535
556 1 -1.1104 6.64423 -2.04776 26.2539
676 2 2.2208 5.2781 21.6599 13.7025
696 2 2.2208 10.8432 10.5046 13.7023
565 1 -1.1104 6.64426 -2.04777 23.4638
557 1 -1.1104 6.65072 3.53034 23.4643
677 2 2.2208 8.05735 13.2935 13.7025
530 1 -1.1104 12.2468 17.4754 23.466
494 1 -1.1104 9.46089 20.2638 23.4661
566 1 -1.1104 6.65071 3.53037 26.2545
567 2 2.2208 10.8334 2.13721 22.0699
568 1 -1.1104 12.2233 -2.04775 23.4638
569 1 -1.1104 12.2297 3.53041 23.4644
570 1 -1.1104 12.2232 -2.04774 26.2539
571 1 -1.1104 12.2297 3.53046 26.2546
572 1 -1.1104 12.2265 0.741326 23.4648
573 2 2.2208 10.8301 -0.651812 24.859
574 1 -1.1104 12.2264 0.741397 26.2535
575 1 -1.1104 9.43385 -2.04779 23.4645
576 1 -1.1104 9.44028 3.53035 23.4651
577 2 2.2208 8.04384 2.13722 24.8593
578 1 -1.1104 9.43368 -2.04772 26.2532
579 1 -1.1104 9.44013 3.53039 26.2538
580 2 2.2208 8.04071 -0.651889 22.0696
581 1 -1.1104 9.43699 0.741305 23.4641
582 1 -1.1104 9.43694 0.741333 26.2542
583 2 2.2208 10.8366 4.92632 24.8596
584 2 2.2208 8.04713 4.92625 22.0701
683 2 2.2208 2.47834 13.2936 13.7025
465 2 2.2208 8.0678 21.6595 22.0709
684 2 2.2208 10.8504 16.083 13.7025
424 1 -1.1104 3.86456 6.31944 20.6758
667 2 2.2208 13.6198 -0.651931 16.4907
432 1 -1.1104 1.07837 9.10869 20.676
594 2 2.2208 5.26092 7.71533 22.0703
595 2 2.2208 5.2678 13.2933 22.0708
596 1 -1.1104 1.07835 9.10866 23.4648
597 1 -1.1104 1.07845 9.10876 26.255
598 1 -1.1104 1.07511 6.31959 23.4652
599 1 -1.1104 1.08186 11.8977 23.4658
600 2 2.2208 5.2643 10.5044 24.8601
601 1 -1.1104 1.07504 6.31966 26.254
602 1 -1.1104 1.08181 11.8978 26.2545
603 1 -1.1104 3.86787 9.10852 23.4656
604 2 2.2208 2.47146 7.71548 24.8598
605 2 2.2208 2.47833 13.2936 24.8603
606 1 -1.1104 3.86781 9.10856 26.2543
607 2 2.2208 2.47482 10.5045 22.0706
608 1 -1.1104 3.8645 6.31948 23.4646
609 1 -1.1104 3.87124 11.8975 23.4651
610 1 -1.1104 3.86456 6.3195 26.2547
611 1 -1.1104 3.87132 11.8976 26.2553
370 2 2.2208 13.6166 -3.44104 19.2799
616 1 -1.1104 6.66078 11.8973 23.4658
613 1 -1.1104 6.65728 9.10838 23.4649
615 1 -1.1104 6.65734 9.10841 26.2551
589 2 2.2208 13.6228 2.13732 24.8593
678 2 2.2208 5.26427 10.5044 13.7023
619 1 -1.1104 6.65394 6.31941 26.254
620 1 -1.1104 6.66073 11.8974 26.2546
697 2 2.2208 5.27147 16.0823 13.7026
612 1 -1.1104 6.65403 6.31939 23.4653
621 1 -1.1104 9.44682 9.1084 23.4656
622 1 -1.1104 12.2397 11.8975 26.2546
623 1 -1.1104 12.2329 6.31951 26.2541
624 2 2.2208 10.8432 10.5043 24.8601
625 1 -1.1104 12.2397 11.8975 23.4658
626 1 -1.1104 12.233 6.31946 23.4654
627 1 -1.1104 12.2363 9.10851 26.2552
628 1 -1.1104 12.2362 9.10848 23.4649
629 1 -1.1104 9.45026 11.8973 26.2553
630 1 -1.1104 9.4435 6.31942 26.2548
631 1 -1.1104 9.45021 11.8974 23.4651
632 1 -1.1104 9.44345 6.3194 23.4646
633 2 2.2208 8.05376 10.5043 22.0706
634 1 -1.1104 9.44677 9.10839 26.2544
635 2 2.2208 8.05726 13.2932 24.8603
636 2 2.2208 8.05039 7.7153 24.8598
637 2 2.2208 10.8399 7.71533 22.0704
638 2 2.2208 10.8467 13.2934 22.0708
639 1 -1.1104 6.66778 17.4751 26.2549
640 1 -1.1104 6.6643 14.6863 26.2555
495 1 -1.1104 1.0889 17.4756 20.676
563 2 2.2208 2.45865 -3.44099 19.28
668 2 2.2208 13.6197 -0.65186 22.0696
643 1 -1.1104 6.66789 17.4751 23.4662
645 1 -1.1104 1.08538 14.6867 20.6766
669 1 -1.1104 6.67129 20.2639 26.2556
646 2 2.2208 2.48859 21.6599 22.071
647 1 -1.1104 3.87834 17.4753 23.4655
648 1 -1.1104 1.0889 17.4757 23.4661
649 1 -1.1104 3.87476 14.6865 26.2548
650 1 -1.1104 3.8783 17.4754 26.2556
651 2 2.2208 2.48532 18.8714 24.8606
652 1 -1.1104 3.88169 20.2642 26.255
653 2 2.2208 5.27489 18.8709 22.0711
654 1 -1.1104 1.08533 14.6867 23.4653
655 1 -1.1104 1.09222 20.2645 23.4655
656 2 2.2208 5.27133 16.0822 24.8605
657 2 2.2208 5.2782 21.6597 24.8605
658 1 -1.1104 1.08537 14.6869 26.2554
659 1 -1.1104 1.08878 17.4759 26.2549
660 1 -1.1104 1.09221 20.2648 26.2555
661 1 -1.1104 3.87485 14.6864 23.4661
662 1 -1.1104 3.88178 20.264 23.4661
663 2 2.2208 2.48191 16.0824 22.071
499 1 -1.1104 6.67134 20.2638 23.4654
700 2 2.2208 13.6362 13.2941 13.7024
673 2 2.2208 13.6326 10.5048 16.4917
664 2 2.2208 13.6434 18.8721 19.2812
526 1 -1.1104 12.2432 14.6865 23.4651
666 1 -1.1104 6.66428 14.6863 23.4653
641 1 -1.1104 6.67138 20.2637 20.6766
466 1 -1.1104 9.46101 20.264 20.6757
665 1 -1.1104 12.2503 20.2642 26.2555
588 1 -1.1104 12.2468 17.4753 26.2547
642 1 -1.1104 9.4573 17.4751 26.2556
528 1 -1.1104 9.45374 14.6863 26.2547
491 2 2.2208 8.06087 16.0821 22.071
498 1 -1.1104 9.45377 14.6863 23.466
522 2 2.2208 8.06435 18.8709 24.8605
531 1 -1.1104 9.45738 17.4751 23.4653
464 1 -1.1104 12.2504 20.2643 23.4651
425 2 2.2208 13.6433 18.8714 24.8603
467 2 2.2208 10.8503 16.0822 24.8604
404 2 2.2208 13.6467 21.6606 22.0706
532 2 2.2208 10.8573 21.6598 24.8604
553 1 -1.1104 9.46081 20.2639 26.2548
560 2 2.2208 5.24817 -3.44101 16.4905
690 2 2.2208 13.6433 18.8728 13.7024
688 2 2.2208 8.03762 -3.44107 13.701
693 2 2.2208 13.6228 2.13722 13.7016
689 2 2.2208 2.46492 2.13732 13.7015
685 2 2.2208 5.2576 4.92625 13.7018
687 2 2.2208 5.25125 -0.651926 13.7013
679 2 2.2208 2.45862 -3.44092 13.7011
692 2 2.2208 10.8365 4.92626 13.7019
680 2 2.2208 10.8302 -0.652008 13.7012
681 2 2.2208 8.04388 2.13708 13.7015
698 2 2.2208 13.6293 7.71563 13.7022
694 2 2.2208 2.4714 7.71555 13.702
686 2 2.2208 13.6166 -3.44114 13.701
682 2 2.2208 8.05035 7.71529 13.7021
701 2 2.2208 5.28134 24.449 5.33403
702 2 2.2208 5.2875 30.0261 5.33285
703 1 -1.1104 1.09852 25.8429 1.14945
704 1 -1.1104 1.09831 25.8429 3.93924
705 1 -1.1104 1.09539 23.054 1.15034
706 1 -1.1104 1.10147 28.632 1.14946
707 2 2.2208 5.2846 27.2376 2.54435
708 1 -1.1104 1.09532 23.054 3.93915
709 1 -1.1104 1.10137 28.6319 3.93828
710 1 -1.1104 3.88815 25.842 1.15004
711 2 2.2208 2.4918 24.4495 2.54464
712 2 2.2208 2.49791 30.0274 2.54383
713 1 -1.1104 3.88811 25.842 3.9388
714 2 2.2208 2.49471 27.2383 5.33343
715 1 -1.1104 3.885 23.0532 1.14985
716 1 -1.1104 3.89111 28.6307 1.14913
717 1 -1.1104 3.88489 23.0533 3.93979
718 1 -1.1104 3.89095 28.6306 3.93876
730 1 -1.1104 6.67789 25.8414 1.14954
875 1 -1.1104 3.88775 25.8417 6.72867
877 1 -1.1104 1.09817 25.8428 6.72811
721 1 -1.1104 1.09508 23.0539 6.72905
902 1 -1.1104 6.68064 28.6294 6.72823
879 1 -1.1104 3.89088 28.6301 6.72757
728 1 -1.1104 6.68091 28.63 1.14969
727 1 -1.1104 6.67779 25.8414 3.93951
729 1 -1.1104 6.68099 28.6298 3.93825
722 1 -1.1104 3.88484 23.0532 6.72857
1418 3 0 11.4846 47.4264 11.7138
732 1 -1.1104 6.67464 23.0528 1.15057
731 1 -1.1104 6.67461 23.0529 3.93924
959 2 2.2208 13.6533 27.2397 5.3338
733 2 2.2208 10.8606 24.4496 5.3342
734 2 2.2208 10.8671 30.0273 5.33335
735 1 -1.1104 12.2572 25.8421 1.14929
736 1 -1.1104 12.2572 25.8425 3.93977
737 1 -1.1104 12.2538 23.0533 1.15054
738 1 -1.1104 12.2604 28.6308 1.14968
739 2 2.2208 10.864 27.238 2.54443
740 1 -1.1104 12.2537 23.0537 3.93916
741 1 -1.1104 12.2604 28.6312 3.93837
742 1 -1.1104 9.4676 25.8415 1.15026
743 2 2.2208 8.07112 24.4488 2.5448
744 2 2.2208 8.07736 30.0261 2.54402
745 1 -1.1104 9.46759 25.8417 3.93885
746 2 2.2208 8.07425 27.2376 5.33363
747 1 -1.1104 9.46425 23.0528 1.14981
748 1 -1.1104 9.47069 28.63 1.14901
749 1 -1.1104 9.46424 23.0531 3.94005
750 1 -1.1104 9.47079 28.6301 3.93916
756 1 -1.1104 9.47071 28.6301 6.72768
751 1 -1.1104 9.46415 23.0533 6.72863
757 1 -1.1104 12.2604 28.6321 6.72903
753 1 -1.1104 6.67446 23.0529 6.72934
754 1 -1.1104 12.2537 23.0542 6.72953
752 1 -1.1104 9.46744 25.8419 6.72917
758 1 -1.1104 12.2569 25.8432 6.72837
956 2 2.2208 13.6501 24.4499 2.54468
990 2 2.2208 13.6565 30.028 2.54392
761 2 2.2208 5.29366 35.6036 5.33158
762 1 -1.1104 1.10434 31.4212 1.14855
763 1 -1.1104 1.11103 37.0013 1.14733
764 1 -1.1104 1.104 31.4211 3.93797
765 1 -1.1104 1.11009 37.0007 3.93628
766 1 -1.1104 1.10741 34.211 1.14844
767 2 2.2208 5.29058 32.8155 2.5436
768 2 2.2208 5.29773 38.3953 2.54273
769 1 -1.1104 1.10713 34.2106 3.93681
770 1 -1.1104 3.89395 31.4197 1.14913
771 1 -1.1104 3.90015 36.9989 1.14843
772 2 2.2208 2.50456 35.6067 2.54292
773 1 -1.1104 3.89391 31.4192 3.93769
774 1 -1.1104 3.89979 36.9972 3.93605
775 2 2.2208 2.50076 32.8162 5.33205
776 2 2.2208 2.50869 38.3956 5.33007
777 1 -1.1104 3.89682 34.2089 1.1483
778 1 -1.1104 3.89639 34.208 3.93738
785 1 -1.1104 6.68371 31.4185 1.14874
789 1 -1.1104 6.68902 36.9942 3.9368
786 1 -1.1104 6.68672 34.2061 3.93693
781 1 -1.1104 3.89888 36.9943 6.72547
931 1 -1.1104 1.1102 36.9984 6.72463
933 1 -1.1104 6.68938 36.9903 6.72511
932 1 -1.1104 1.10388 31.4204 6.72682
809 1 -1.1104 6.68618 34.204 6.7265
783 1 -1.1104 6.68663 34.2076 1.14897
782 1 -1.1104 1.10627 34.2094 6.72616
788 1 -1.1104 6.68369 31.418 3.9382
808 1 -1.1104 6.68379 31.417 6.72674
784 1 -1.1104 6.68992 36.997 1.14789
790 2 2.2208 10.8731 35.6047 5.33243
791 1 -1.1104 12.2633 31.4193 1.14832
792 1 -1.1104 12.2697 36.9959 1.1473