ITEM: TIMESTEP
294
ITEM: NUMBER OF ATOMS
17732
ITEM: BOX BOUNDS pp pp pp
-2.7717828229332220e-01 2.7617178282293317e+01
-3.4472205766305355e+00 3.3152722057663055e+02
-2.7717827830221448e-01 2.7617178278302212e+01
ITEM: ATOMS id type q x y z
1 2 2.2208 5.2762 2.13463 5.32694
2 1 -1.1104 1.08866 -2.04971 1.14198
3 1 -1.1104 1.09309 3.5278 1.1427
4 1 -1.1104 1.08873 -2.04979 3.93192
5 1 -1.1104 1.09315 3.52773 3.93261
6 1 -1.1104 1.09096 0.73905 1.14283
7 2 2.2208 5.27398 -0.654087 2.53711
8 1 -1.1104 1.09089 0.738965 3.93175
9 1 -1.1104 3.87818 -2.04967 1.14246
10 1 -1.1104 3.88262 3.52783 1.14322
11 2 2.2208 2.48675 2.13463 2.53748
12 1 -1.1104 3.8781 -2.04972 3.9314
13 1 -1.1104 3.88253 3.52778 3.93217
14 2 2.2208 2.48453 -0.654185 5.32655
15 2 2.2208 2.48893 4.92335 5.32731
16 1 -1.1104 3.88033 0.73909 1.14235
17 1 -1.1104 3.8804 0.739037 3.93228
18 2 2.2208 5.2784 4.9234 2.53794
28 1 -1.1104 6.67197 3.52781 1.14276
30 1 -1.1104 6.66763 -2.04972 3.93183
27 1 -1.1104 3.88032 0.73901 6.72122
9068 2 2.2208 -0.300492 4.92334 2.53784
9104 2 2.2208 -0.304907 -0.654201 2.5371
22 1 -1.1104 6.66986 0.739081 1.14281
145 2 2.2208 10.8681 18.8668 -0.249255
9180 2 2.2208 -0.302698 2.13447 5.32688
88 1 -1.1104 12.2618 17.4717 9.51321
25 1 -1.1104 3.8826 3.52777 6.72209
181 1 -1.1104 3.87818 -2.04976 6.72132
180 1 -1.1104 1.09095 0.738898 6.72169
20 1 -1.1104 1.08864 -2.04985 6.72084
60 2 2.2208 13.6598 21.6563 10.9085
319 1 -1.1104 6.68287 17.4719 9.51317
31 1 -1.1104 6.66977 0.739042 3.93178
29 1 -1.1104 6.66755 -2.04967 1.14194
172 2 2.2208 13.6598 21.6559 5.32995
32 1 -1.1104 6.67207 3.52776 3.93268
33 2 2.2208 10.8551 2.1345 5.32691
34 1 -1.1104 12.2464 -2.04991 1.14187
35 1 -1.1104 12.2508 3.5276 1.14273
36 1 -1.1104 12.2465 -2.04995 3.93175
37 1 -1.1104 12.251 3.5276 3.93264
38 1 -1.1104 12.2487 0.73884 1.14272
39 2 2.2208 10.8529 -0.654253 2.53703
40 1 -1.1104 12.2487 0.738824 3.93171
41 1 -1.1104 9.45708 -2.04978 1.14235
42 1 -1.1104 9.4615 3.52772 1.14322
43 2 2.2208 8.06565 2.1346 2.5375
44 1 -1.1104 9.457 -2.04982 3.93131
45 1 -1.1104 9.46142 3.52768 3.93222
46 2 2.2208 8.06343 -0.654165 5.32649
47 1 -1.1104 9.45922 0.738977 1.14231
48 1 -1.1104 9.45932 0.738932 3.93221
49 2 2.2208 8.06783 4.92334 5.32742
50 2 2.2208 10.8573 4.92326 2.53797
51 1 -1.1104 6.66753 -2.04973 6.72077
54 1 -1.1104 12.2488 0.73881 6.72159
56 1 -1.1104 9.46152 3.5277 6.7221
343 2 2.2208 2.48455 -0.654067 -0.252311
175 1 -1.1104 12.2594 14.6828 6.72346
337 2 2.2208 10.8659 16.0785 8.11856
339 2 2.2208 10.855 2.13452 -0.251982
344 2 2.2208 8.06342 -0.654112 -0.252359
64 2 2.2208 5.28052 7.71215 5.32784
65 2 2.2208 5.28482 13.2898 5.32869
66 1 -1.1104 1.09748 9.10538 1.14357
67 1 -1.1104 1.09752 9.10536 3.93347
68 1 -1.1104 1.09538 6.31658 1.14361
69 1 -1.1104 1.09976 11.8942 1.1445
70 2 2.2208 5.28271 10.5009 2.53885
71 1 -1.1104 1.09527 6.31653 3.93252
72 1 -1.1104 1.0996 11.8942 3.93345
73 1 -1.1104 3.887 9.10536 1.1441
74 2 2.2208 2.49114 7.71219 2.53833
75 2 2.2208 2.49547 13.2899 2.53922
76 1 -1.1104 3.88685 9.10535 3.93308
77 2 2.2208 2.49324 10.501 5.3282
78 1 -1.1104 3.88474 6.31658 1.14318
79 1 -1.1104 3.88905 11.8942 1.14408
80 1 -1.1104 3.8848 6.31656 3.93309
81 1 -1.1104 3.88909 11.8942 3.93397
240 1 -1.1104 1.09531 6.31646 6.72243
245 1 -1.1104 3.88894 11.8942 6.7229
87 1 -1.1104 6.67854 11.8941 1.14459
86 1 -1.1104 6.67426 6.31655 1.14369
83 1 -1.1104 1.09961 11.8941 6.72333
9067 2 2.2208 -0.298335 7.71208 5.32769
325 1 -1.1104 12.2619 17.4719 12.303
9062 2 2.2208 -0.293976 13.2898 5.32861
298 1 -1.1104 6.68304 17.4719 12.3031
94 1 -1.1104 6.67637 9.10527 3.93362
330 1 -1.1104 12.2595 14.6829 9.51332
91 1 -1.1104 6.67415 6.31651 3.93268
89 1 -1.1104 6.67632 9.10529 1.14373
92 1 -1.1104 6.67839 11.8941 3.93359
95 2 2.2208 10.8594 7.71206 5.32792
96 2 2.2208 10.8636 13.2896 5.32879
97 1 -1.1104 12.2552 9.10512 1.14379
98 1 -1.1104 12.2552 9.10515 3.93367
99 1 -1.1104 12.2531 6.31636 1.14371
100 1 -1.1104 12.2574 11.8938 1.14468
101 2 2.2208 10.8616 10.5008 2.53896
102 1 -1.1104 12.253 6.3164 3.9327
103 1 -1.1104 12.2573 11.8939 3.93367
104 1 -1.1104 9.46585 9.10521 1.14423
105 2 2.2208 8.07 7.7121 2.53846
106 2 2.2208 8.07426 13.2896 2.53933
107 1 -1.1104 9.4657 9.10521 3.93323
108 2 2.2208 8.07206 10.5009 5.32836
109 1 -1.1104 9.46359 6.31646 1.14327
110 1 -1.1104 9.46789 11.8939 1.14421
111 1 -1.1104 9.46369 6.31644 3.93318
112 1 -1.1104 9.46791 11.894 3.93411
90 1 -1.1104 6.67421 6.31652 6.72258
118 1 -1.1104 12.2551 9.10521 6.72266
338 2 2.2208 8.0765 16.0787 10.9079
117 1 -1.1104 12.2573 11.894 6.72356
295 1 -1.1104 9.46999 14.683 9.51282
9179 2 2.2208 -0.293991 13.2896 10.9074
299 1 -1.1104 6.68065 14.683 9.51324
121 2 2.2208 5.28924 18.8676 5.32956
122 1 -1.1104 1.10182 14.6831 1.14448
123 1 -1.1104 1.10607 20.261 1.14546
124 1 -1.1104 1.10188 14.6831 3.93437
125 1 -1.1104 1.10623 20.2611 3.93526
126 1 -1.1104 1.10409 17.472 1.14545
127 2 2.2208 5.28704 16.0786 2.53972
128 2 2.2208 5.29131 21.6564 2.54062
129 1 -1.1104 1.10397 17.4721 3.93435
130 1 -1.1104 3.89131 14.683 1.14497
131 1 -1.1104 3.89557 20.2608 1.14592
132 2 2.2208 2.4998 18.8677 2.54017
133 1 -1.1104 3.89117 14.6831 3.93393
134 1 -1.1104 3.89551 20.2609 3.93487
135 2 2.2208 2.49763 16.0788 5.32907
136 2 2.2208 2.502 21.6568 5.32993
137 1 -1.1104 3.89333 17.4719 1.14502
138 1 -1.1104 3.89347 17.472 3.93485
152 1 -1.1104 6.68287 17.4717 1.14546
147 1 -1.1104 1.10623 20.261 6.72415
296 1 -1.1104 1.10175 14.683 6.72326
142 1 -1.1104 6.68067 14.6829 3.93443
140 1 -1.1104 6.68059 14.6828 1.14456
183 2 2.2208 8.07647 16.0784 -0.249696
324 2 2.2208 10.8704 21.6563 8.11932
143 1 -1.1104 3.89339 17.4719 6.72377
141 1 -1.1104 3.89124 14.6831 6.72378
144 1 -1.1104 3.89568 20.2609 6.72468
139 1 -1.1104 6.68278 17.4717 3.93443
150 1 -1.1104 6.68505 20.2606 3.9353
153 1 -1.1104 6.68486 20.2604 1.14552
151 1 -1.1104 9.4746 20.2605 6.72471
154 2 2.2208 10.8681 18.8672 5.32957
155 1 -1.1104 12.2595 14.6825 1.14461
156 1 -1.1104 12.2638 20.2599 1.14544
157 1 -1.1104 12.2596 14.6826 3.93451
158 1 -1.1104 12.264 20.2601 3.93529
159 1 -1.1104 12.2618 17.4712 1.14545
160 2 2.2208 10.8659 16.0783 2.53975
161 2 2.2208 10.8703 21.6558 2.54062
162 1 -1.1104 12.2617 17.4714 3.93442
163 1 -1.1104 9.47013 14.6827 1.14503
164 1 -1.1104 9.47449 20.2601 1.14589
165 2 2.2208 8.07863 18.8673 2.5402
166 1 -1.1104 9.47 14.6828 3.93402
167 1 -1.1104 9.4744 20.2603 3.93488
168 2 2.2208 8.07645 16.0785 5.32915
169 2 2.2208 8.08085 21.6562 5.32997
170 1 -1.1104 9.4722 17.4714 1.14502
171 1 -1.1104 9.47234 17.4716 3.93488
176 1 -1.1104 9.47226 17.4716 6.72383
149 1 -1.1104 6.68503 20.2606 6.72427
148 1 -1.1104 6.68292 17.4718 6.72427
331 2 2.2208 10.8682 18.8675 10.9083
9066 2 2.2208 -0.300538 4.92318 8.11667
332 1 -1.1104 12.264 20.261 12.3029
9126 2 2.2208 -0.302753 2.13439 10.9057
9105 2 2.2208 -0.291729 16.0788 2.53967
9039 2 2.2208 -0.296101 10.501 2.53874
26 1 -1.1104 1.09308 3.52765 6.72154
184 2 2.2208 5.27616 2.13463 10.9058
185 1 -1.1104 1.08859 -2.04987 12.2997
186 1 -1.1104 1.09303 3.52761 12.3004
187 1 -1.1104 1.08869 -2.04986 9.51079
188 1 -1.1104 1.09313 3.52762 9.51148
189 1 -1.1104 1.09089 0.738871 12.3006
190 2 2.2208 5.27397 -0.654136 8.11597
192 1 -1.1104 1.09085 0.738869 9.51062
193 1 -1.1104 3.87812 -2.04975 12.3002
194 1 -1.1104 3.88256 3.52776 12.301
195 2 2.2208 2.48673 2.13455 8.11636
196 1 -1.1104 3.87807 -2.04974 9.51026
197 1 -1.1104 3.8825 3.52775 9.51104
198 2 2.2208 2.48449 -0.6542 10.9054
199 2 2.2208 2.48889 4.92329 10.9062
200 1 -1.1104 3.88026 0.739017 12.3001
201 1 -1.1104 3.88038 0.739001 9.51116
191 2 2.2208 5.27836 4.92338 8.11681
205 1 -1.1104 6.6676 -2.04974 9.51068
9133 2 2.2208 -0.304942 -0.654331 8.11597
341 2 2.2208 5.2762 2.13471 -0.251938
238 1 -1.1104 9.47476 20.261 12.3034
174 1 -1.1104 9.47009 14.6828 6.72391
58 1 -1.1104 12.2508 3.52762 6.72161
52 1 -1.1104 9.45922 0.738949 6.72116
55 1 -1.1104 6.67196 3.52776 6.72164
57 1 -1.1104 12.2464 -2.04996 6.72071
59 1 -1.1104 9.45707 -2.04984 6.72119
322 1 -1.1104 9.47456 20.2607 9.51362
202 1 -1.1104 6.66974 0.739047 9.51062
203 1 -1.1104 6.67191 3.52781 12.3005
218 1 -1.1104 6.66747 -2.04971 12.2996
204 1 -1.1104 6.66986 0.739013 6.72167
216 1 -1.1104 6.66978 0.73903 12.3005
213 1 -1.1104 6.67205 3.5278 9.51155
219 2 2.2208 10.855 2.13453 10.9057
220 1 -1.1104 12.2463 -2.04993 12.2996
221 1 -1.1104 12.2508 3.52767 12.3004
222 1 -1.1104 12.2465 -2.04997 9.5106
223 1 -1.1104 12.2509 3.52764 9.51149
224 1 -1.1104 12.2486 0.738847 12.3004
225 2 2.2208 10.8528 -0.654276 8.11587
226 1 -1.1104 12.2486 0.738849 9.51055
227 1 -1.1104 9.45699 -2.04981 12.3001
228 1 -1.1104 9.46144 3.52775 12.3009
229 2 2.2208 8.06563 2.1346 8.11636
230 1 -1.1104 9.45694 -2.04981 9.51015
231 1 -1.1104 9.46138 3.52774 9.51107
232 2 2.2208 8.06337 -0.654147 10.9053
233 2 2.2208 8.06779 4.92339 10.9063
234 1 -1.1104 9.45912 0.73898 12.3
235 1 -1.1104 9.45927 0.738953 9.51105
236 2 2.2208 10.8573 4.92331 8.11683
328 1 -1.1104 9.47238 17.472 12.3026
329 1 -1.1104 12.2639 20.2604 6.72423
9009 2 2.2208 -0.298383 7.71191 10.9065
8887 2 2.2208 -0.296206 10.5008 8.11756
84 1 -1.1104 1.09737 9.10528 6.72239
85 1 -1.1104 3.88466 6.31653 6.72204
82 1 -1.1104 3.88688 9.10534 6.72296
246 2 2.2208 5.28047 7.71215 10.9067
247 2 2.2208 5.2848 13.2898 10.9075
248 1 -1.1104 1.09737 9.10515 12.3012
249 1 -1.1104 1.09744 9.1052 9.51231
250 1 -1.1104 1.09529 6.31638 12.3013
251 1 -1.1104 1.09964 11.894 12.3021
252 2 2.2208 5.2826 10.5009 8.1177
253 1 -1.1104 1.09521 6.31638 9.51136
254 1 -1.1104 1.09953 11.894 9.51223
255 1 -1.1104 3.88687 9.10531 12.3018
256 2 2.2208 2.49105 7.71209 8.11716
257 2 2.2208 2.49539 13.2898 8.11801
258 1 -1.1104 3.88677 9.10528 9.51191
259 2 2.2208 2.49321 10.5009 10.907
260 1 -1.1104 3.88463 6.3165 12.3009
261 1 -1.1104 3.88896 11.8941 12.3017
262 1 -1.1104 3.88474 6.31652 9.51195
263 1 -1.1104 3.889 11.8941 9.51278
270 1 -1.1104 6.67629 9.10535 9.51251
265 1 -1.1104 6.67832 11.8941 9.5124
173 1 -1.1104 12.2618 17.4716 6.72429
334 1 -1.1104 9.47241 17.4718 9.51368
61 2 2.2208 8.07873 18.8675 8.11893
114 1 -1.1104 12.2531 6.31641 6.72258
119 1 -1.1104 9.46354 6.31649 6.72217
268 1 -1.1104 9.46774 11.894 6.72308
115 1 -1.1104 9.46573 9.10525 6.72312
116 1 -1.1104 6.6762 9.10528 6.72262
264 1 -1.1104 6.67844 11.8942 12.3023
93 1 -1.1104 6.67842 11.8941 6.72347
271 1 -1.1104 6.6762 9.10536 12.3015
269 1 -1.1104 6.67409 6.31656 9.51156
274 1 -1.1104 6.67418 6.31657 12.3015
275 1 -1.1104 9.46782 11.8941 9.51296
276 1 -1.1104 9.46364 6.31651 9.51205
277 1 -1.1104 9.46777 11.8942 12.3019
278 1 -1.1104 9.4635 6.31655 12.301
279 2 2.2208 8.07201 10.501 10.9072
280 1 -1.1104 9.46559 9.10531 9.5121
281 2 2.2208 8.0742 13.2898 8.11815
282 2 2.2208 8.06992 7.71213 8.11734
283 2 2.2208 10.8593 7.71212 10.9068
284 2 2.2208 10.8636 13.2898 10.9076
285 1 -1.1104 12.255 9.10528 12.3015
286 1 -1.1104 12.2551 9.10525 9.51252
287 1 -1.1104 12.253 6.31645 12.3014
288 1 -1.1104 12.2573 11.8941 12.3024
289 2 2.2208 10.8614 10.5009 8.11782
290 1 -1.1104 12.253 6.31646 9.51157
291 1 -1.1104 12.2572 11.8941 9.5125
292 1 -1.1104 9.46571 9.10537 12.302
323 1 -1.1104 9.47012 14.6831 12.3027
293 1 -1.1104 12.2641 20.2606 9.51403
335 1 -1.1104 6.68063 14.683 12.3021
177 1 -1.1104 6.68055 14.6829 6.72337
327 1 -1.1104 12.2595 14.6829 12.3022
326 2 2.2208 8.0811 21.6566 10.9086
297 1 -1.1104 1.10407 17.472 6.7242
336 1 -1.1104 6.68523 20.2607 9.5141
301 1 -1.1104 1.1042 17.4717 12.303
302 2 2.2208 2.49768 16.0786 10.9078
303 2 2.2208 2.50234 21.6564 10.9086
304 1 -1.1104 3.89354 17.4718 12.3025
305 1 -1.1104 3.89595 20.2607 12.3035
306 1 -1.1104 3.89129 14.683 12.3026
307 1 -1.1104 1.1064 20.2608 9.514
308 1 -1.1104 1.10406 17.4718 9.51308
309 2 2.2208 5.29153 21.6565 8.11929
310 1 -1.1104 1.10182 14.6829 9.51316
311 2 2.2208 5.28704 16.0787 8.11848
312 1 -1.1104 1.10653 20.2605 12.3029
313 1 -1.1104 1.10182 14.6828 12.302
314 2 2.2208 5.2894 18.8675 10.9083
315 1 -1.1104 3.89575 20.2608 9.51357
316 2 2.2208 2.4999 18.8676 8.11888
317 1 -1.1104 3.89352 17.4719 9.51363
318 1 -1.1104 3.89116 14.683 9.51268
333 1 -1.1104 6.68532 20.2608 12.303
9103 2 2.2208 -0.29176 16.0786 8.11842
208 2 2.2208 5.28919 18.8674 -0.249207
266 2 2.2208 8.08073 21.6558 -0.248785
342 2 2.2208 2.48897 4.92345 -0.251545
9213 2 2.2208 -0.302691 2.13464 -0.251967
9061 2 2.2208 -0.293876 13.2898 -0.250216
242 2 2.2208 2.49333 10.501 -0.250651
9204 2 2.2208 -0.298278 7.71216 -0.251125
146 2 2.2208 13.6597 21.6552 -0.248796
345 2 2.2208 8.06784 4.92338 -0.251497
346 2 2.2208 5.28059 7.7122 -0.25105
243 2 2.2208 5.28489 13.2898 -0.25017
217 2 2.2208 8.07215 10.5009 -0.250538
215 2 2.2208 10.8637 13.2895 -0.250096
347 2 2.2208 10.8594 7.71204 -0.250982
207 2 2.2208 2.49767 16.0787 -0.249717
214 2 2.2208 2.50191 21.6565 -0.248749
239 2 2.2208 13.6576 18.8669 2.54016
120 2 2.2208 13.6576 18.8672 8.11887
351 2 2.2208 5.27611 2.13464 16.4847
352 1 -1.1104 1.08862 -2.04983 17.8786
353 1 -1.1104 1.09304 3.52767 17.8793
354 1 -1.1104 1.08867 -2.04986 15.0897
355 1 -1.1104 1.0931 3.52764 15.0904
356 1 -1.1104 1.09092 0.738936 17.8795
357 2 2.2208 5.27393 -0.654132 19.2737
358 1 -1.1104 1.09081 0.73888 15.0895
359 1 -1.1104 3.87814 -2.04975 17.8791
360 1 -1.1104 3.88257 3.52782 17.8799
361 2 2.2208 2.48672 2.13463 19.2741
362 1 -1.1104 3.87802 -2.04976 15.0891
363 1 -1.1104 3.88245 3.52777 15.0899
364 2 2.2208 2.48448 -0.654182 16.4843
365 1 -1.1104 3.88025 0.739029 17.879
366 1 -1.1104 3.88033 0.739004 15.0901
367 2 2.2208 2.48889 4.92334 16.4851
368 2 2.2208 5.27835 4.92347 19.2745
387 1 -1.1104 6.67197 3.52781 15.0904
695 2 2.2208 10.8527 -0.654259 13.6947
373 1 -1.1104 3.87809 -2.04972 20.668
9473 2 2.2208 -0.300494 4.92338 24.8534
378 1 -1.1104 1.09086 0.739008 20.6684
379 1 -1.1104 1.08877 -2.04975 20.6685
534 1 -1.1104 6.6697 0.73903 20.6684
532 2 2.2208 13.6598 21.6557 16.4872
383 1 -1.1104 6.67189 3.5278 17.8794
369 1 -1.1104 6.66966 0.739039 15.0895
9479 2 2.2208 -0.3027 2.1346 22.0635
385 1 -1.1104 6.66754 -2.04975 15.0896
384 1 -1.1104 6.66975 0.738992 17.8794
370 1 -1.1104 6.66747 -2.04978 17.8786
388 2 2.2208 10.8549 2.13449 16.4846
389 1 -1.1104 12.2463 -2.05 17.8785
390 1 -1.1104 12.2507 3.52759 17.8793
391 1 -1.1104 12.2464 -2.04997 15.0895
392 1 -1.1104 12.2508 3.52761 15.0903
393 1 -1.1104 12.2486 0.73878 17.8793
394 2 2.2208 10.8528 -0.654315 19.2736
395 2 2.2208 10.8571 4.92328 19.2745
396 1 -1.1104 12.2485 0.738813 15.0894
397 1 -1.1104 9.45698 -2.04987 17.879
398 1 -1.1104 9.46139 3.5277 17.8798
399 2 2.2208 8.06554 2.13459 19.2741
400 1 -1.1104 9.45688 -2.04983 15.0891
401 1 -1.1104 9.46129 3.52773 15.0899
402 2 2.2208 8.06331 -0.654187 16.4842
403 2 2.2208 8.06774 4.92339 16.4851
404 1 -1.1104 9.45907 0.738904 17.8789
405 1 -1.1104 9.45916 0.738919 15.0899
406 1 -1.1104 9.4592 0.738903 20.6688
537 2 2.2208 2.5001 18.8673 13.6977
408 1 -1.1104 12.2465 -2.04997 20.6683
407 1 -1.1104 9.46129 3.52771 20.6688
410 1 -1.1104 12.2508 3.52758 20.6692
9422 2 2.2208 -0.298369 7.71189 16.4854
417 2 2.2208 5.2805 7.71222 16.4855
418 2 2.2208 5.28491 13.2898 16.4863
419 1 -1.1104 1.0974 9.10517 17.8801
420 1 -1.1104 1.09747 9.10515 15.0912
421 1 -1.1104 1.09532 6.31644 17.8802
422 1 -1.1104 1.09972 11.8939 17.881
423 2 2.2208 5.28271 10.501 19.2754
424 1 -1.1104 1.09519 6.31637 15.0903
425 1 -1.1104 1.09959 11.8939 15.0911
426 1 -1.1104 3.88693 9.10538 17.8807
427 2 2.2208 2.49111 7.71216 19.2749
428 2 2.2208 2.4955 13.2897 19.2757
429 1 -1.1104 3.8868 9.10532 15.0907
430 2 2.2208 2.49325 10.5009 16.4859
431 1 -1.1104 3.88467 6.31659 17.8798
432 1 -1.1104 3.88904 11.8941 17.8805
433 1 -1.1104 3.88473 6.31656 15.0908
434 1 -1.1104 3.88908 11.8941 15.0916
449 1 -1.1104 6.67406 6.31659 15.0904
9547 2 2.2208 -0.293886 13.2895 22.0652
9415 2 2.2208 -0.293909 13.2894 16.4863
437 1 -1.1104 3.88915 11.8942 20.6705
591 1 -1.1104 1.09754 9.10524 20.6701
440 1 -1.1104 6.67632 9.10542 15.0913
9391 2 2.2208 -0.296135 10.5007 19.2753
9548 2 2.2208 -0.300517 4.92324 19.2745
443 1 -1.1104 3.88687 9.1054 20.6696
438 1 -1.1104 1.09963 11.894 20.67
442 1 -1.1104 1.09527 6.3165 20.6692
683 2 2.2208 13.6598 21.6548 22.0664
446 1 -1.1104 6.67626 9.1054 17.8803
445 1 -1.1104 6.67854 11.8942 17.8811
447 1 -1.1104 6.67841 11.8942 15.0912
448 1 -1.1104 6.67419 6.31661 17.8803
450 2 2.2208 10.8593 7.71211 16.4856
451 2 2.2208 10.8638 13.2897 16.4864
452 1 -1.1104 12.2551 9.10519 17.8803
453 1 -1.1104 12.2551 9.10525 15.0914
454 1 -1.1104 12.253 6.3164 17.8803
455 1 -1.1104 12.2574 11.894 17.8812
456 2 2.2208 10.8616 10.5009 19.2755
457 1 -1.1104 12.2529 6.31644 15.0904
458 1 -1.1104 12.2573 11.8941 15.0913
459 1 -1.1104 9.46577 9.10536 17.8808
460 2 2.2208 8.06995 7.71222 19.275
461 2 2.2208 8.07436 13.2897 19.2758
462 1 -1.1104 9.46564 9.10535 15.0909
463 2 2.2208 8.07209 10.501 16.486
464 1 -1.1104 9.46349 6.31653 17.8798
465 1 -1.1104 9.4679 11.8941 17.8807
466 1 -1.1104 9.46359 6.31652 15.0909
467 1 -1.1104 9.4679 11.8942 15.0917
470 1 -1.1104 9.468 11.894 20.6706
439 1 -1.1104 6.67411 6.31663 20.6692
471 1 -1.1104 12.2574 11.8939 20.6702
474 1 -1.1104 12.2529 6.31637 20.6693
468 1 -1.1104 9.46361 6.31651 20.6697
533 1 -1.1104 6.68298 17.4715 20.6709
477 2 2.2208 5.28953 18.8673 16.4871
478 1 -1.1104 1.10188 14.6827 17.881
479 1 -1.1104 1.10652 20.2601 17.8818
480 1 -1.1104 1.10196 14.6827 15.092
481 1 -1.1104 1.10661 20.2603 15.0929
482 1 -1.1104 1.10427 17.4714 17.882
483 2 2.2208 5.28719 16.0785 19.2762
484 2 2.2208 5.29174 21.6558 19.277
485 1 -1.1104 1.10421 17.4715 15.0919
486 1 -1.1104 3.89139 14.6829 17.8815
487 1 -1.1104 3.89597 20.2603 17.8824
488 2 2.2208 2.50005 18.8671 19.2766
489 1 -1.1104 3.89128 14.6829 15.0915
490 1 -1.1104 3.896 20.2605 15.0923
491 2 2.2208 2.49778 16.0784 16.4867
492 2 2.2208 2.50247 21.6559 16.4875
493 1 -1.1104 3.8936 17.4716 17.8814
494 1 -1.1104 3.89368 17.4717 15.0925
502 1 -1.1104 6.68311 17.4717 17.8819
498 1 -1.1104 3.89578 20.2602 20.6714
9534 2 2.2208 -0.30275 2.13443 16.4846
496 1 -1.1104 6.68536 20.2604 17.8818
497 1 -1.1104 6.68074 14.6829 17.881
495 1 -1.1104 6.68543 20.2606 15.0929
644 1 -1.1104 1.10198 14.6827 20.671
640 1 -1.1104 1.1041 17.4715 20.6709
528 1 -1.1104 9.4725 17.4714 20.6713
506 1 -1.1104 6.68077 14.683 15.092
507 1 -1.1104 6.68305 17.4718 15.0919
509 2 2.2208 10.8683 18.8673 16.487
510 1 -1.1104 12.2596 14.6827 17.881
511 1 -1.1104 12.2641 20.2602 17.8816
512 1 -1.1104 12.2596 14.6829 15.0921
513 1 -1.1104 12.2641 20.2608 15.0926
514 1 -1.1104 12.2619 17.4714 17.8818
515 2 2.2208 10.8661 16.0783 19.2762
516 2 2.2208 10.8705 21.6556 19.2767
517 1 -1.1104 12.2619 17.4718 15.0919
518 1 -1.1104 9.47024 14.6829 17.8815
519 1 -1.1104 9.47474 20.2604 17.8821
520 2 2.2208 8.0789 18.8671 19.2766
521 1 -1.1104 9.47013 14.683 15.0916
522 1 -1.1104 9.47479 20.2609 15.0923
523 2 2.2208 8.07663 16.0786 16.4867
524 2 2.2208 8.08121 21.6562 16.4874
525 1 -1.1104 9.4725 17.4716 17.8814
526 1 -1.1104 9.47251 17.4719 15.0924
529 1 -1.1104 9.4702 14.6827 20.6705
508 1 -1.1104 12.2619 17.4711 20.6708
696 2 2.2208 8.06555 2.13461 13.6952
530 1 -1.1104 6.68081 14.6829 20.6709
671 1 -1.1104 9.47465 20.26 20.6712
527 1 -1.1104 12.2597 14.6825 20.6709
9551 2 2.2208 -0.304922 -0.654227 19.2737
9510 2 2.2208 -0.304888 -0.654113 24.8526
374 1 -1.1104 1.09316 3.52777 20.6693
371 1 -1.1104 6.6676 -2.04976 20.6685
375 1 -1.1104 3.8825 3.52785 20.6688
376 1 -1.1104 3.88038 0.73906 20.6689
538 2 2.2208 5.27617 2.13469 22.0636
539 1 -1.1104 1.08868 -2.04971 23.4575
540 1 -1.1104 1.09307 3.5278 23.4582
541 1 -1.1104 1.08876 -2.04969 26.2474
542 1 -1.1104 1.09317 3.52785 26.2481
543 1 -1.1104 1.09097 0.739052 23.4583
544 2 2.2208 5.27398 -0.654067 24.8526
545 1 -1.1104 1.09089 0.739085 26.2473
546 1 -1.1104 3.8782 -2.04968 23.458
547 1 -1.1104 3.8826 3.52789 23.4587
548 2 2.2208 2.48676 2.13471 24.853
549 1 -1.1104 3.8781 -2.04963 26.2469
550 1 -1.1104 3.88254 3.52788 26.2477
551 2 2.2208 2.48454 -0.654099 22.0632
552 1 -1.1104 3.88031 0.739099 23.4579
553 1 -1.1104 3.88041 0.739132 26.2478
554 2 2.2208 5.27839 4.92348 24.8534
555 2 2.2208 2.48895 4.92345 22.0639
9565 2 2.2208 -0.304985 -0.654332 13.6948
692 2 2.2208 5.2739 -0.654114 13.6948
679 1 -1.1104 9.47235 17.4713 23.4604
9392 2 2.2208 -0.291644 16.0782 19.2762
587 2 2.2208 8.08095 21.6555 22.0665
412 1 -1.1104 9.45694 -2.04985 20.668
562 1 -1.1104 6.66754 -2.04971 23.4575
556 1 -1.1104 6.66983 0.739047 23.4583
563 1 -1.1104 6.67193 3.52783 23.4582
386 1 -1.1104 6.672 3.52784 20.6693
411 1 -1.1104 12.2485 0.738792 20.6683
672 1 -1.1104 12.264 20.2596 26.2507
567 1 -1.1104 6.67205 3.52785 26.2481
558 1 -1.1104 6.66975 0.739088 26.2473
559 1 -1.1104 6.66763 -2.04968 26.2473
568 2 2.2208 10.855 2.13449 22.0635
569 1 -1.1104 12.2464 -2.04994 23.4573
570 1 -1.1104 12.2507 3.52761 23.4582
571 1 -1.1104 12.2465 -2.04991 26.2472
572 1 -1.1104 12.2509 3.52762 26.2481
573 1 -1.1104 12.2487 0.738825 23.4582
574 2 2.2208 10.8528 -0.654253 24.8525
575 1 -1.1104 12.2486 0.738842 26.2472
576 1 -1.1104 9.45707 -2.04982 23.4578
577 1 -1.1104 9.46142 3.52774 23.4586
578 2 2.2208 8.0656 2.13463 24.853
579 1 -1.1104 9.45698 -2.04978 26.2468
580 1 -1.1104 9.46136 3.52773 26.2477
581 2 2.2208 8.06338 -0.654178 22.0631
582 1 -1.1104 9.45915 0.738948 23.4578
583 1 -1.1104 9.45927 0.738964 26.2477
584 2 2.2208 10.8572 4.9233 24.8534
585 2 2.2208 8.06777 4.92341 22.0639
9509 2 2.2208 -0.2983 7.71204 22.0643
589 1 -1.1104 3.8848 6.31665 20.6697
677 1 -1.1104 9.47023 14.6826 23.4604
684 2 2.2208 10.8703 21.6552 24.856
592 2 2.2208 5.28055 7.71227 22.0644
593 2 2.2208 5.28492 13.2898 22.0652
594 1 -1.1104 1.09746 9.1053 23.459
595 1 -1.1104 1.09758 9.10538 26.249
596 1 -1.1104 1.09538 6.31655 23.4591
597 1 -1.1104 1.09976 11.8941 23.46
598 2 2.2208 5.28273 10.501 24.8543
599 1 -1.1104 1.09528 6.31661 26.248
600 1 -1.1104 1.09966 11.8942 26.2489
601 1 -1.1104 3.88697 9.10542 23.4596
602 2 2.2208 2.49115 7.71223 24.8538
603 2 2.2208 2.49551 13.2898 24.8547
604 1 -1.1104 3.8869 9.10538 26.2486
605 2 2.2208 2.49331 10.501 22.0648
606 1 -1.1104 3.88471 6.31666 23.4586
607 1 -1.1104 3.88906 11.8942 23.4595
608 1 -1.1104 3.88482 6.31663 26.2486
609 1 -1.1104 3.88916 11.8942 26.2494
9550 2 2.2208 -0.296075 10.5009 24.8542
612 1 -1.1104 6.6763 9.10537 23.4592
617 1 -1.1104 6.67847 11.8941 26.249
611 1 -1.1104 6.67855 11.8941 23.46
673 1 -1.1104 12.2617 17.4711 26.2499
678 2 2.2208 8.0787 18.867 24.8557
613 1 -1.1104 6.67641 9.10535 26.2491
619 1 -1.1104 6.67422 6.31662 23.4591
441 1 -1.1104 6.67848 11.8941 20.6701
435 1 -1.1104 6.67638 9.10542 20.6702
616 1 -1.1104 6.67415 6.3166 26.2481
469 1 -1.1104 12.2552 9.10515 20.6702
472 1 -1.1104 9.4657 9.1053 20.6698
620 1 -1.1104 9.46581 9.10529 23.4597
621 1 -1.1104 12.2574 11.8938 26.2491
622 1 -1.1104 12.2529 6.31637 26.2481
623 2 2.2208 10.8616 10.5008 24.8544
624 1 -1.1104 12.2575 11.8938 23.4601
625 1 -1.1104 12.253 6.3164 23.4592
626 1 -1.1104 12.2553 9.10513 26.2491
627 1 -1.1104 12.2551 9.10514 23.4592
628 1 -1.1104 9.468 11.894 26.2496
629 1 -1.1104 9.46365 6.31649 26.2486
630 1 -1.1104 9.46793 11.894 23.4596
631 1 -1.1104 9.46351 6.31651 23.4587
632 2 2.2208 8.07214 10.501 22.0649
633 1 -1.1104 9.46575 9.10524 26.2487
634 2 2.2208 8.07433 13.2896 24.8548
635 2 2.2208 8.06998 7.71219 24.8539
636 2 2.2208 10.8594 7.71209 22.0645
637 2 2.2208 10.8638 13.2895 22.0653
505 1 -1.1104 12.2597 14.6825 26.2499
664 1 -1.1104 6.68503 20.2601 23.4609
668 1 -1.1104 12.2596 14.6824 23.46
560 2 2.2208 5.29186 21.6563 13.698
9390 2 2.2208 -0.291693 16.0785 24.8552
674 1 -1.1104 9.47237 17.4713 26.2503
669 1 -1.1104 6.68068 14.6828 23.46
639 1 -1.1104 6.68073 14.6828 26.2499
504 1 -1.1104 1.10649 20.2601 20.6719
499 1 -1.1104 3.89128 14.6829 20.6705
500 1 -1.1104 3.89363 17.4715 20.6714
646 2 2.2208 2.50218 21.6558 22.0666
647 1 -1.1104 3.89343 17.4716 23.4605
648 1 -1.1104 1.10417 17.4716 23.4609
649 1 -1.1104 3.89122 14.683 26.2494
650 1 -1.1104 3.8935 17.4718 26.2504
651 2 2.2208 2.49985 18.8673 24.8557
652 1 -1.1104 3.89546 20.2606 26.2505
653 2 2.2208 5.28937 18.8671 22.0662
654 1 -1.1104 1.10184 14.6829 23.4599
655 1 -1.1104 1.10622 20.2604 23.4609
656 2 2.2208 5.2871 16.0785 24.8552
657 2 2.2208 5.29138 21.6559 24.8561
658 1 -1.1104 1.10196 14.683 26.2499
659 1 -1.1104 1.10397 17.4718 26.2499
660 1 -1.1104 1.10627 20.2607 26.2509
661 1 -1.1104 3.89136 14.6829 23.4604
662 1 -1.1104 3.89574 20.2603 23.4614
663 2 2.2208 2.49772 16.0784 22.0657
643 1 -1.1104 6.68299 17.4715 23.4609
670 1 -1.1104 6.68528 20.2601 20.6718
676 2 2.2208 8.0766 16.0783 22.0657
645 1 -1.1104 6.68503 20.2603 26.2508
566 1 -1.1104 9.47458 20.2598 23.4612
638 1 -1.1104 6.68278 17.4716 26.2499
565 1 -1.1104 12.2619 17.471 23.4608
680 1 -1.1104 12.2639 20.2595 23.4608
531 1 -1.1104 12.2641 20.2596 20.6715
444 2 2.2208 10.8683 18.8667 22.066
675 1 -1.1104 9.47008 14.6827 26.2495
682 2 2.2208 10.866 16.0781 24.8552
685 1 -1.1104 9.47436 20.2599 26.2504
9503 2 2.2208 -0.291645 16.0783 13.6973
690 2 2.2208 2.48668 2.13455 13.6953
475 2 2.2208 10.8705 21.6566 13.6979
615 2 2.2208 5.28264 10.501 13.6965
9513 2 2.2208 -0.296188 10.5007 13.6964
694 2 2.2208 10.8572 4.92331 13.6957
698 2 2.2208 2.49105 7.71206 13.696
413 2 2.2208 8.0789 18.8675 13.6977
588 2 2.2208 10.866 16.0786 13.6973
9556 2 2.2208 -0.30057 4.92313 13.6956
691 2 2.2208 5.27831 4.92341 13.6957
586 2 2.2208 2.49545 13.2897 13.6968
700 2 2.2208 8.06991 7.71218 13.6962
564 2 2.2208 8.07426 13.2898 13.6969
561 2 2.2208 10.8615 10.5009 13.6966
618 2 2.2208 5.28716 16.0786 13.6973
667 2 2.2208 13.6577 18.8666 19.2764
681 2 2.2208 13.6576 18.8664 24.8556
687 2 2.2208 13.6577 18.8672 13.6975
701 2 2.2208 5.29351 24.4455 5.33025
702 2 2.2208 5.29775 30.0236 5.33081
703 1 -1.1104 1.11033 25.8395 1.1463
704 1 -1.1104 1.11041 25.8396 3.93594
705 1 -1.1104 1.10834 23.0501 1.14634
706 1 -1.1104 1.11284 28.6289 1.14719
707 2 2.2208 5.29559 27.2344 2.54138
708 1 -1.1104 1.10824 23.0503 3.93522
709 1 -1.1104 1.11243 28.6292 3.93594
710 1 -1.1104 3.89982 25.8388 1.14658
711 2 2.2208 2.50404 24.4459 2.54101
712 2 2.2208 2.5085 30.0248 2.54193
713 1 -1.1104 3.89967 25.8389 3.93551
714 2 2.2208 2.50623 27.2352 5.33053
715 1 -1.1104 3.89752 23.0498 1.14591
716 1 -1.1104 3.90184 28.6281 1.14666
717 1 -1.1104 3.89768 23.0499 3.93563
718 1 -1.1104 3.90184 28.628 3.93611
727 1 -1.1104 6.69124 28.6269 3.93587
725 1 -1.1104 6.69149 28.627 1.1469
724 1 -1.1104 3.90185 28.6278 6.72504
754 1 -1.1104 6.68727 23.0495 6.72503
720 1 -1.1104 3.89986 25.8388 6.72515
958 1 -1.1104 6.59834 48.0879 12.4775
1035 2 2.2208 2.52272 43.9836 -0.247966
726 1 -1.1104 6.68925 25.8382 3.93588
731 1 -1.1104 6.68704 23.0494 3.93525
719 1 -1.1104 6.68906 25.8381 1.1462
730 1 -1.1104 6.6871 23.0493 1.14625
733 2 2.2208 10.8725 24.4449 5.33044
734 2 2.2208 10.8768 30.0226 5.33155
735 1 -1.1104 12.2682 25.837 1.14637
736 1 -1.1104 12.2685 25.8375 3.93623
737 1 -1.1104 12.2662 23.0485 1.14631
738 1 -1.1104 12.2707 28.6255 1.14727
739 2 2.2208 10.8746 27.2332 2.54164
740 1 -1.1104 12.2661 23.0488 3.93531
741 1 -1.1104 12.2705 28.6259 3.93634
742 1 -1.1104 9.47879 25.8375 1.14662
743 2 2.2208 8.08289 24.4449 2.54101
744 2 2.2208 8.08722 30.0226 2.542
745 1 -1.1104 9.47867 25.8377 3.93566
746 2 2.2208 8.0851 27.234 5.3307
747 1 -1.1104 9.47644 23.0488 1.14586
748 1 -1.1104 9.48078 28.6261 1.1467
749 1 -1.1104 9.47669 23.0491 3.93568
750 1 -1.1104 9.48104 28.6263 3.93647
751 1 -1.1104 9.48084 28.6264 6.72551
1031 2 2.2208 5.30225 35.6032 -0.245742
752 1 -1.1104 9.47665 23.0492 6.72466
755 1 -1.1104 12.2663 23.0492 6.72511
756 1 -1.1104 9.47894 25.838 6.7255
732 2 2.2208 13.6642 27.2336 5.33101
1020 2 2.2208 13.6683 32.8083 -0.245922
760 2 2.2208 5.30167 35.6028 5.3311
761 1 -1.1104 1.1148 31.4189 1.14729
762 1 -1.1104 1.11902 37.0006 1.14795
763 1 -1.1104 1.11462 31.4189 3.93661
764 1 -1.1104 1.11805 37 3.93668
765 1 -1.1104 1.11726 34.2091 1.14804
766 2 2.2208 5.2999 32.8133 2.54238
767 2 2.2208 5.30335 38.3942 2.54187
768 1 -1.1104 1.1165 34.2093 3.93654
769 1 -1.1104 3.90424 31.4176 1.14736
770 1 -1.1104 3.90788 36.9981 1.14747
771 2 2.2208 2.5129 35.6054 2.54281
772 1 -1.1104 3.90382 31.4174 3.93619
773 1 -1.1104 3.90698 36.997 3.936
774 2 2.2208 2.51058 32.8146 5.33111
775 2 2.2208 2.51462 38.3957 5.33078
776 1 -1.1104 3.90599 34.2076 1.14749
777 1 -1.1104 3.90558 34.207 3.93641
778 1 -1.1104 6.69335 31.4161 1.1471
786 1 -1.1104 6.69547 34.2055 1.14744
788 1 -1.1104 6.6934 31.4157 3.93635
780 1 -1.1104 6.69515 34.2044 3.93624
779 1 -1.1104 6.69589 36.993 3.93549
935 1 -1.1104 3.90382 31.4168 6.72551
936 1 -1.1104 3.90575 34.2058 6.72541
783 1 -1.1104 6.69649 36.9905 6.72496
790 1 -1.1104 6.69712 36.9957 1.14684
785 1 -1.1104 6.6952 34.2034 6.72552
784 1 -1.1104 1.11462 31.4184 6.72534
993 2 2.2208 13.6668 32.8163 10.9096
1018 2 2.2208 5.31651 46.7784 -0.259304
932 2 2.2208 13.666 30.0233 8.12064
960 1 -1.1104 12.3089 42.5613 9.52345
791 2 2.2208 10.8805 35.6002 5.33193
792 1 -1.1104 12.2725 31.4138 1.14742
793 1 -1.1104 12.2763 36.9909 1.14706
794 1 -1.1104 12.273 31.4143 3.93723
795 1 -1.1104 12.2766 36.9893 3.93554
796 1 -1.1104 12.275 34.2024 1.14772
797 2 2.2208 10.8787 32.8108 2.54291
798 2 2.2208 10.8794 38.3897 2.54176
799 1 -1.1104 12.275 34.2021 3.93702
800 1 -1.1104 9.48321 31.4149 1.14741
801 1 -1.1104 9.48614 36.9935 1.14668
802 2 2.2208 8.09074 35.6017 2.54282
803 1 -1.1104 9.48299 31.4146 3.93647
804 1 -1.1104 9.48617 36.9912 3.93598
805 2 2.2208 8.08926 32.8118 5.33126
806 2 2.2208 8.09115 38.3902 5.33177
807 1 -1.1104 9.48475 34.2038 1.14758
808 1 -1.1104 9.48505 34.2032 3.93669
812 1 -1.1104 9.48326 31.4146 6.72647
963 1 -1.1104 12.2753 34.2027 6.72754
813 1 -1.1104 9.48724 36.9866 6.72615
816 2 2.2208 13.6685 32.8114 5.33192
1309 2 2.2208 13.6634 41.2391 13.6765
821 2 2.2208 5.30348 41.1819 5.32803
822 2 2.2208 5.28636 46.7702 5.30809
823 1 -1.1104 1.12264 42.5868 1.14587
824 1 -1.1104 1.11829 42.585 3.93349
825 1 -1.1104 1.12122 39.7923 1.14809
826 1 -1.1104 1.12322 45.3805 1.14255
827 2 2.2208 5.30493 43.9798 2.5329