ITEM: TIMESTEP
289
ITEM: NUMBER OF ATOMS
17704
ITEM: BOX BOUNDS pp pp pp
-2.7717828229332220e-01 2.7617178282293317e+01
-3.4472205766305355e+00 3.3152722057663055e+02
-2.7717827830221448e-01 2.7617178278302212e+01
ITEM: ATOMS id type q x y z
1 2 2.2208 5.28072 2.1354 5.31713
2 1 -1.1104 1.09423 -2.05168 1.13244
3 1 -1.1104 1.09738 3.52945 1.13295
4 1 -1.1104 1.09419 -2.05166 3.92225
5 1 -1.1104 1.09738 3.52949 3.92273
6 1 -1.1104 1.09586 0.738869 1.13298
7 2 2.2208 5.27919 -0.655164 2.52746
8 1 -1.1104 1.09574 0.738926 3.92207
9 1 -1.1104 3.88371 -2.05168 1.13282
10 1 -1.1104 3.88694 3.52943 1.1333
11 2 2.2208 2.49133 2.13544 2.52768
12 1 -1.1104 3.88363 -2.05168 3.92194
13 1 -1.1104 3.88676 3.52949 3.92239
14 2 2.2208 2.48969 -0.65515 5.31688
15 2 2.2208 2.49288 4.92602 5.31749
16 1 -1.1104 3.88526 0.73889 1.13264
17 1 -1.1104 3.88524 0.738887 3.92241
18 2 2.2208 5.28242 4.92597 2.52807
35 1 -1.1104 6.67478 0.738858 1.13303
31 1 -1.1104 6.67465 0.738854 3.92213
32 1 -1.1104 6.6763 3.52944 3.92279
178 1 -1.1104 3.88516 0.738862 6.71151
26 1 -1.1104 1.09414 -2.05169 6.71134
209 1 -1.1104 6.67467 0.738835 6.7119
34 1 -1.1104 6.67635 3.52942 1.13299
695 2 2.2208 8.07691 13.2978 13.6871
689 2 2.2208 13.6592 18.8801 13.6885
22 1 -1.1104 1.09725 3.52949 6.71183
324 1 -1.1104 12.2638 17.4835 12.2937
182 2 2.2208 13.6491 2.13542 8.10675
33 1 -1.1104 6.67311 -2.0517 3.92228
20 1 -1.1104 6.67313 -2.05168 1.13248
36 2 2.2208 10.8596 2.13538 5.31727
37 1 -1.1104 12.252 -2.05172 1.13258
38 1 -1.1104 12.2553 3.52942 1.13305
39 1 -1.1104 12.252 -2.05173 3.92239
40 1 -1.1104 12.2552 3.52941 3.92288
41 1 -1.1104 12.2537 0.738838 1.13313
42 2 2.2208 10.8581 -0.655193 2.52756
43 1 -1.1104 12.2536 0.738854 3.92226
44 1 -1.1104 9.46261 -2.05173 1.13286
45 1 -1.1104 9.46589 3.52939 1.13339
46 2 2.2208 8.07026 2.13539 2.52777
47 1 -1.1104 9.46254 -2.05173 3.92197
48 1 -1.1104 9.4657 3.52943 3.9225
49 2 2.2208 8.0686 -0.655199 5.31696
50 1 -1.1104 9.4642 0.738846 1.13274
51 1 -1.1104 9.46417 0.738828 3.92254
52 2 2.2208 8.0718 4.92597 5.31754
53 2 2.2208 10.8613 4.92595 2.52812
212 1 -1.1104 9.46256 -2.05175 6.71181
55 1 -1.1104 12.2551 3.52949 6.71198
680 2 2.2208 13.6524 7.7168 13.6861
262 2 2.2208 13.6612 21.6704 5.32119
59 1 -1.1104 9.46407 0.738815 6.71164
58 1 -1.1104 12.2536 0.738864 6.71207
54 1 -1.1104 12.252 -2.05175 6.71152
291 2 2.2208 10.8719 21.6704 8.11056
61 2 2.2208 5.28402 7.7166 5.31794
62 2 2.2208 5.28746 13.2978 5.319
63 1 -1.1104 1.10064 9.11055 1.13389
64 1 -1.1104 1.10073 9.11065 3.92364
65 1 -1.1104 1.09914 6.31999 1.13373
66 1 -1.1104 1.10245 11.9011 1.13476
67 2 2.2208 5.28576 10.5071 2.52905
68 1 -1.1104 1.09894 6.32009 3.92283
69 1 -1.1104 1.10229 11.9012 3.92382
70 1 -1.1104 3.89025 9.11049 1.13424
71 2 2.2208 2.4946 7.71656 2.52853
72 2 2.2208 2.49799 13.2977 2.52958
73 1 -1.1104 3.89008 9.11062 3.9233
74 2 2.2208 2.49625 10.5072 5.31843
75 1 -1.1104 3.88849 6.31997 1.13339
76 1 -1.1104 3.8918 11.901 1.13442
77 1 -1.1104 3.88852 6.32005 3.92318
78 1 -1.1104 3.89192 11.9012 3.92421
87 1 -1.1104 6.6796 9.1105 1.13388
83 1 -1.1104 1.10059 9.11069 6.71271
89 1 -1.1104 6.67955 9.11065 6.7127
112 1 -1.1104 6.67792 6.32004 6.71262
84 1 -1.1104 3.88837 6.32003 6.71225
81 1 -1.1104 3.89179 11.9012 6.71322
92 1 -1.1104 6.68127 11.9011 3.92383
79 1 -1.1104 6.67807 6.31995 1.13374
85 1 -1.1104 1.10242 11.9013 6.71358
114 1 -1.1104 6.68141 11.9013 6.71361
88 1 -1.1104 6.6797 9.11058 3.92368
91 1 -1.1104 6.67789 6.32003 3.92284
86 1 -1.1104 6.68144 11.901 1.1348
93 2 2.2208 10.8629 7.71664 5.31794
94 2 2.2208 10.8664 13.298 5.31907
95 1 -1.1104 12.2585 9.11054 1.13388
96 1 -1.1104 12.2586 9.11065 3.92368
97 1 -1.1104 12.257 6.31996 1.13375
98 1 -1.1104 12.2604 11.9011 1.13483
99 2 2.2208 10.8647 10.5071 2.52907
100 1 -1.1104 12.2568 6.32003 3.92282
101 1 -1.1104 12.2602 11.9013 3.92389
102 1 -1.1104 9.4692 9.11049 1.13424
103 2 2.2208 8.07355 7.71653 2.52854
104 2 2.2208 8.07696 13.2977 2.52963
105 1 -1.1104 9.46901 9.11063 3.9233
106 2 2.2208 8.0752 10.5072 5.31845
107 1 -1.1104 9.46744 6.31995 1.1334
108 1 -1.1104 9.47077 11.901 1.13444
109 1 -1.1104 9.46744 6.32001 3.9232
110 1 -1.1104 9.47089 11.9012 3.92426
111 1 -1.1104 12.2568 6.32014 6.7126
263 1 -1.1104 9.46912 9.1107 6.71307
113 1 -1.1104 12.2584 9.11083 6.71268
121 2 2.2208 13.6558 13.2978 2.52966
314 2 2.2208 13.6541 10.5074 5.31847
292 2 2.2208 13.6524 7.71655 2.52854
115 1 -1.1104 12.2603 11.9015 6.71367
116 1 -1.1104 9.47072 11.9014 6.71325
60 2 2.2208 13.6507 4.92604 5.31756
122 2 2.2208 5.29101 18.8788 5.3203
123 1 -1.1104 1.10399 14.6916 1.13498
124 1 -1.1104 1.10739 20.2727 1.13648
125 1 -1.1104 1.10416 14.6918 3.92476
126 1 -1.1104 1.1077 20.2729 3.92619
127 1 -1.1104 1.10589 17.4821 1.136
128 2 2.2208 5.28921 16.0881 2.5302
129 2 2.2208 5.29275 21.6691 2.53174
130 1 -1.1104 1.10572 17.4824 3.92507
131 1 -1.1104 3.89366 14.6915 1.13535
132 1 -1.1104 3.89715 20.2724 1.13675
133 2 2.2208 2.50146 18.8787 2.53093
134 1 -1.1104 3.89349 14.6917 3.9244
135 1 -1.1104 3.89699 20.2727 3.9258
136 2 2.2208 2.49971 16.0883 5.31961
137 2 2.2208 2.5033 21.6695 5.3211
138 1 -1.1104 3.89518 17.482 1.13562
139 1 -1.1104 3.89542 17.4822 3.92541
153 1 -1.1104 6.68492 17.482 1.13599
141 1 -1.1104 1.10753 20.273 6.71521
294 1 -1.1104 3.89364 14.6918 6.71418
143 1 -1.1104 6.68677 20.2727 3.9262
145 1 -1.1104 1.10591 17.4824 6.71483
142 1 -1.1104 6.68299 14.6915 1.13498
151 1 -1.1104 6.68475 17.4822 3.92503
152 1 -1.1104 6.68317 14.6917 3.9248
146 1 -1.1104 3.89524 17.4823 6.71444
290 1 -1.1104 3.89723 20.2728 6.71557
140 1 -1.1104 1.10401 14.6919 6.71381
172 1 -1.1104 6.6866 20.2728 6.7152
149 1 -1.1104 6.68642 20.2723 1.13635
154 2 2.2208 10.87 18.8792 5.32038
155 1 -1.1104 12.2619 14.6917 1.13503
156 1 -1.1104 12.2654 20.2728 1.13632
157 1 -1.1104 12.2621 14.692 3.9249
158 1 -1.1104 12.2658 20.2732 3.92628
159 1 -1.1104 12.2638 17.4823 1.13607
160 2 2.2208 10.8682 16.0883 2.53027
161 2 2.2208 10.8718 21.6694 2.53173
162 1 -1.1104 12.2637 17.4826 3.92511
163 1 -1.1104 9.47265 14.6915 1.1354
164 1 -1.1104 9.47618 20.2725 1.13676
165 2 2.2208 8.08047 18.8787 2.5309
166 1 -1.1104 9.47247 14.6918 3.92445
167 1 -1.1104 9.47604 20.2728 3.92579
168 2 2.2208 8.07871 16.0884 5.31965
169 2 2.2208 8.08236 21.6695 5.32113
170 1 -1.1104 9.47419 17.482 1.13561
171 1 -1.1104 9.47445 17.4824 3.9255
325 1 -1.1104 9.47633 20.2732 6.71572
175 1 -1.1104 12.2655 20.2737 6.71526
174 1 -1.1104 9.47426 17.4826 6.71448
173 1 -1.1104 9.47265 14.692 6.71426
176 1 -1.1104 12.2619 14.6922 6.71389
150 1 -1.1104 12.2639 17.483 6.71498
267 2 2.2208 13.6576 16.0888 5.31971
288 2 2.2208 13.6593 18.8792 2.53095
118 2 2.2208 13.6492 2.13538 2.52783
27 1 -1.1104 3.88678 3.52944 6.71215
207 1 -1.1104 9.47429 17.4829 12.2932
24 2 2.2208 13.6611 21.6713 10.8999
21 1 -1.1104 1.09575 0.738895 6.71184
183 1 -1.1104 3.88363 -2.0517 6.7117
184 2 2.2208 5.28077 2.1353 10.896
185 1 -1.1104 1.09424 -2.05173 12.2902
186 1 -1.1104 1.09736 3.52937 12.2907
187 1 -1.1104 1.09418 -2.05172 9.50112
188 1 -1.1104 1.09734 3.52944 9.50158
189 1 -1.1104 1.09586 0.738836 12.2907
190 2 2.2208 5.27915 -0.655216 8.10634
191 2 2.2208 5.28232 4.92594 8.10693
192 1 -1.1104 1.09574 0.738848 9.50095
193 1 -1.1104 3.88371 -2.05177 12.2906
194 1 -1.1104 3.88691 3.52935 12.291
195 2 2.2208 2.49125 2.1354 8.10654
196 1 -1.1104 3.88363 -2.05176 9.50079
197 1 -1.1104 3.88674 3.52938 9.50125
198 2 2.2208 2.48974 -0.655227 10.8957
199 2 2.2208 2.4929 4.92593 10.8963
200 1 -1.1104 3.8853 0.738743 12.2904
201 1 -1.1104 3.88523 0.738818 9.50126
202 1 -1.1104 6.67627 3.52938 9.50163
214 1 -1.1104 6.67632 3.52931 12.2907
203 1 -1.1104 6.67313 -2.05175 9.5012
686 2 2.2208 5.28248 4.92586 13.6857
238 1 -1.1104 9.4763 20.2738 12.2945
687 2 2.2208 2.49143 2.13528 13.6854
206 2 2.2208 8.07871 16.0886 10.8984
678 2 2.2208 5.2793 -0.655301 13.6852
321 1 -1.1104 12.2657 20.2742 9.50515
211 1 -1.1104 6.67308 -2.05175 6.71139
210 1 -1.1104 6.67618 3.52941 6.71186
217 1 -1.1104 9.46569 3.52942 6.71229
688 2 2.2208 13.6492 2.13537 13.6856
319 1 -1.1104 12.2655 20.2747 12.2939
216 1 -1.1104 6.6748 0.738765 12.2908
213 1 -1.1104 6.67465 0.738776 9.50101
676 2 2.2208 8.0805 18.8792 13.6885
261 2 2.2208 13.6507 4.92607 10.8964
215 1 -1.1104 6.67318 -2.05183 12.2903
218 2 2.2208 10.8597 2.13533 10.8961
219 1 -1.1104 12.2521 -2.05185 12.2904
220 1 -1.1104 12.2552 3.52941 12.2908
221 1 -1.1104 12.252 -2.05179 9.50132
222 1 -1.1104 12.2552 3.52947 9.50175
223 1 -1.1104 12.2537 0.738792 12.291
224 2 2.2208 10.8581 -0.655226 8.10649
225 1 -1.1104 12.2535 0.738812 9.50118
226 1 -1.1104 9.46266 -2.05186 12.2907
227 1 -1.1104 9.46582 3.52936 12.2911
228 2 2.2208 8.07016 2.13533 8.10664
229 1 -1.1104 9.46257 -2.0518 9.50093
230 1 -1.1104 9.46567 3.52937 9.50135
231 2 2.2208 8.06866 -0.655272 10.8959
232 2 2.2208 8.07184 4.92591 10.8963
233 1 -1.1104 9.46421 0.738704 12.2905
234 1 -1.1104 9.46413 0.738812 9.50145
235 2 2.2208 10.8612 4.926 8.10699
691 2 2.2208 8.07035 2.13526 13.6855
690 2 2.2208 10.8614 4.92598 13.6858
677 2 2.2208 10.8582 -0.655327 13.6854
322 2 2.2208 8.08243 21.67 10.8998
80 1 -1.1104 1.09898 6.3201 6.71258
82 1 -1.1104 3.89019 9.11062 6.71307
240 2 2.2208 5.28403 7.7165 10.8967
241 2 2.2208 5.28746 13.2978 10.8978
242 1 -1.1104 1.10061 9.11052 12.2915
243 1 -1.1104 1.10068 9.11063 9.50245
244 1 -1.1104 1.09902 6.31996 12.2914
245 1 -1.1104 1.10242 11.9011 12.2924
246 2 2.2208 5.28573 10.5072 8.10783
247 1 -1.1104 1.0989 6.32005 9.50166
248 1 -1.1104 1.10231 11.9012 9.50262
249 1 -1.1104 3.89018 9.11051 12.2918
250 2 2.2208 2.49452 7.71659 8.10734
251 2 2.2208 2.49798 13.2978 8.10839
252 1 -1.1104 3.89008 9.11058 9.50209
253 2 2.2208 2.49626 10.5071 10.8972
254 1 -1.1104 3.88844 6.3199 12.291
255 1 -1.1104 3.8918 11.9011 12.292
256 1 -1.1104 3.88844 6.31997 9.50199
257 1 -1.1104 3.89192 11.9012 9.50299
266 1 -1.1104 6.67785 6.31997 9.50164
265 1 -1.1104 6.68128 11.9013 9.50259
269 1 -1.1104 6.67799 6.31994 12.2914
684 2 2.2208 2.49797 13.2976 13.6872
258 1 -1.1104 6.67957 9.11058 12.2914
268 1 -1.1104 6.67964 9.11062 9.50245
289 1 -1.1104 12.2619 14.6925 12.2926
693 2 2.2208 5.28571 10.507 13.6866
148 1 -1.1104 9.47613 20.2736 9.5046
317 2 2.2208 8.08053 18.8792 8.10973
692 2 2.2208 2.4946 7.71642 13.6861
117 1 -1.1104 9.4673 6.32005 6.71225
679 2 2.2208 13.6558 13.2983 13.6872
259 1 -1.1104 6.68138 11.9012 12.2924
25 2 2.2208 13.6523 7.71678 8.10733
694 2 2.2208 10.8646 10.5073 13.6865
683 2 2.2208 8.07355 7.71653 13.6861
30 2 2.2208 13.654 10.5076 10.8972
270 1 -1.1104 9.47087 11.9014 9.50302
271 1 -1.1104 9.46737 6.32004 9.50201
272 1 -1.1104 9.47072 11.9014 12.292
273 1 -1.1104 9.46738 6.32 12.291
274 2 2.2208 8.07519 10.5073 10.8972
275 1 -1.1104 9.46899 9.11074 9.50205
276 2 2.2208 8.07694 13.2979 8.10841
277 2 2.2208 8.07348 7.7166 8.10735
278 2 2.2208 10.8629 7.71667 10.8967
279 2 2.2208 10.8664 13.2982 10.8978
280 1 -1.1104 12.2584 9.11086 12.2914
281 1 -1.1104 12.2585 9.11087 9.50244
282 1 -1.1104 12.2569 6.32014 12.2914
283 1 -1.1104 12.2603 11.9017 12.2923
284 2 2.2208 10.8646 10.5074 8.10784
285 1 -1.1104 12.2567 6.32015 9.50163
286 1 -1.1104 12.2601 11.9016 9.5026
287 1 -1.1104 9.4691 9.1107 12.2918
180 2 2.2208 13.6558 13.2983 8.10845
204 1 -1.1104 12.2621 14.6924 9.50369
239 1 -1.1104 9.47261 14.6922 12.293
699 2 2.2208 5.28921 16.0882 13.6878
264 1 -1.1104 6.68683 20.273 9.50505
179 1 -1.1104 6.68314 14.6919 9.50361
295 1 -1.1104 1.10586 17.4823 12.2936
296 2 2.2208 2.49972 16.0883 10.8984
297 2 2.2208 2.50329 21.6694 10.8997
298 1 -1.1104 3.89529 17.4822 12.2932
299 1 -1.1104 3.89719 20.2727 12.2943
300 1 -1.1104 3.89364 14.6917 12.293
301 1 -1.1104 1.10767 20.273 9.5049
302 1 -1.1104 1.10577 17.4824 9.50386
303 2 2.2208 5.29291 21.6695 8.11044
304 1 -1.1104 1.10416 14.6918 9.50358
305 2 2.2208 5.2892 16.0884 8.10902
306 1 -1.1104 1.10747 20.2728 12.2939
307 1 -1.1104 1.10403 14.6917 12.2926
308 2 2.2208 5.29103 18.879 10.8991
309 1 -1.1104 3.8971 20.2728 9.50453
310 2 2.2208 2.50151 18.8789 8.10969
311 1 -1.1104 3.89542 17.4823 9.50422
312 1 -1.1104 3.89351 14.6918 9.50319
696 2 2.2208 2.50145 18.8787 13.6885
698 2 2.2208 5.29284 21.6693 13.6892
144 1 -1.1104 6.68299 14.6918 6.7138
23 2 2.2208 13.6594 18.8799 8.10978
682 2 2.2208 10.8681 16.0888 13.6878
260 1 -1.1104 12.2637 17.4833 9.50392
181 2 2.2208 10.8682 16.0888 8.10908
323 1 -1.1104 9.47248 14.6922 9.5032
177 1 -1.1104 6.68493 17.4824 6.71488
316 2 2.2208 10.87 18.8798 10.8991
318 2 2.2208 13.6575 16.0892 10.8985
313 1 -1.1104 6.68303 14.6919 12.2925
293 1 -1.1104 6.68493 17.4825 12.2936
208 1 -1.1104 9.47444 17.4829 9.50435
205 1 -1.1104 6.68479 17.4825 9.50383
315 1 -1.1104 6.68667 20.2731 12.2939
700 2 2.2208 10.8718 21.6707 13.6892
56 2 2.2208 13.6476 -0.655255 10.896
320 2 2.2208 13.6475 -0.655179 5.31707
236 2 2.2208 13.6459 -3.44579 2.52746
147 2 2.2208 8.06701 -3.4458 8.10629
29 2 2.2208 2.48812 -3.4457 2.52733
57 2 2.2208 2.48809 -3.44575 8.10621
28 2 2.2208 5.27755 -3.44576 5.31681
90 2 2.2208 10.8565 -3.44579 5.31688
19 2 2.2208 5.27759 -3.44581 10.8957
685 2 2.2208 2.48816 -3.44583 13.6851
120 2 2.2208 8.06703 -3.44574 2.52737
351 2 2.2208 5.281 2.13525 16.4748
352 1 -1.1104 1.09438 -2.05182 17.869
353 1 -1.1104 1.09759 3.52927 17.8695
354 1 -1.1104 1.09433 -2.0518 15.08
355 1 -1.1104 1.09755 3.52931 15.0804
356 1 -1.1104 1.09605 0.738738 17.8696
357 2 2.2208 5.27945 -0.655286 19.2641
358 2 2.2208 5.28266 4.92584 19.2646
359 1 -1.1104 1.09592 0.738749 15.0798
360 1 -1.1104 3.88388 -2.05183 17.8694
361 1 -1.1104 3.88714 3.5293 17.8698
362 2 2.2208 2.49159 2.13527 19.2643
363 1 -1.1104 3.88379 -2.05186 15.0797
364 1 -1.1104 3.88698 3.52926 15.0801
365 2 2.2208 2.48993 -0.655296 16.4746
366 1 -1.1104 3.88549 0.738713 17.8692
367 1 -1.1104 3.88544 0.738724 15.0801
368 2 2.2208 2.4931 4.92581 16.4752
523 2 2.2208 13.6592 18.8791 19.2672
377 1 -1.1104 3.88711 3.52929 20.6589
369 1 -1.1104 6.67651 3.52932 15.0804
384 1 -1.1104 6.67501 0.738737 17.8696
527 1 -1.1104 1.0944 -2.05179 20.6588
376 1 -1.1104 1.09603 0.738765 20.6587
371 1 -1.1104 6.67656 3.5293 17.8695
528 1 -1.1104 1.09769 3.52928 20.6593
521 1 -1.1104 3.88385 -2.05179 20.6585
378 1 -1.1104 6.67665 3.52933 20.6593
522 2 2.2208 13.6609 21.6708 16.4784
381 1 -1.1104 6.67488 0.738666 15.0799
373 1 -1.1104 6.67331 -2.05186 17.8691
383 1 -1.1104 6.67335 -2.0518 20.6589
372 1 -1.1104 6.67328 -2.05186 15.0801
385 2 2.2208 10.8599 2.13536 16.4749
386 1 -1.1104 12.2522 -2.05189 17.8693
387 1 -1.1104 12.2554 3.52947 17.8696
388 1 -1.1104 12.2522 -2.05187 15.0802
389 1 -1.1104 12.2554 3.52948 15.0805
390 1 -1.1104 12.2539 0.738818 17.8697
391 2 2.2208 10.8583 -0.655283 19.2642
392 2 2.2208 10.8616 4.92601 19.2646
393 1 -1.1104 12.2538 0.738751 15.08
394 1 -1.1104 9.46278 -2.05186 17.8696
395 1 -1.1104 9.46606 3.52942 17.8699
396 2 2.2208 8.07053 2.13533 19.2643
397 1 -1.1104 9.46271 -2.05191 15.0798
398 1 -1.1104 9.46591 3.52934 15.0801
399 2 2.2208 8.06885 -0.655327 16.4747
400 2 2.2208 8.07205 4.92591 16.4751
401 1 -1.1104 9.46442 0.738754 17.8693
402 1 -1.1104 9.46437 0.738743 15.0803
634 2 2.2208 13.6494 2.1354 19.2643
408 1 -1.1104 9.46604 3.5294 20.659
334 2 2.2208 13.6476 -0.655189 27.6325
404 1 -1.1104 12.2555 3.52946 20.6593
611 2 2.2208 13.6509 4.9261 16.4752
328 2 2.2208 13.6575 16.0882 27.6352
344 2 2.2208 13.661 21.6694 27.6366
410 2 2.2208 5.28414 7.71638 16.4755
411 2 2.2208 5.28737 13.2975 16.4766
412 1 -1.1104 1.10068 9.11034 17.8704
413 1 -1.1104 1.10072 9.11042 15.0813
414 1 -1.1104 1.09921 6.3198 17.8703
415 1 -1.1104 1.10236 11.9009 17.8712
416 2 2.2208 5.28572 10.5068 19.2655
417 1 -1.1104 1.09906 6.31984 15.0805
418 1 -1.1104 1.10229 11.901 15.0814
419 1 -1.1104 3.89023 9.11033 17.8707
420 2 2.2208 2.49471 7.71631 19.265
421 2 2.2208 2.49789 13.2973 19.2661
422 1 -1.1104 3.89011 9.1104 15.0809
423 2 2.2208 2.49624 10.5069 16.4761
424 1 -1.1104 3.88862 6.31981 17.8699
425 1 -1.1104 3.89171 11.9008 17.8709
426 1 -1.1104 3.88862 6.31982 15.0808
427 1 -1.1104 3.89185 11.9009 15.0818
428 1 -1.1104 6.67803 6.31989 15.0804
430 1 -1.1104 6.68123 11.9011 15.0814
436 1 -1.1104 6.67962 9.1104 17.8703
581 1 -1.1104 3.88874 6.3198 20.6597
431 1 -1.1104 1.10082 9.11032 20.6602
432 1 -1.1104 3.89186 11.9007 20.6607
455 1 -1.1104 6.68123 11.9008 20.6603
585 1 -1.1104 1.09915 6.3198 20.6594
604 1 -1.1104 6.67975 9.11033 20.6601
350 2 2.2208 8.07867 16.0879 27.6351
435 1 -1.1104 6.67819 6.31987 17.8702
429 1 -1.1104 6.67968 9.11048 15.0812
434 1 -1.1104 6.68131 11.9009 17.8712
437 2 2.2208 10.8631 7.71664 16.4755
438 2 2.2208 10.8663 13.2978 16.4765
439 1 -1.1104 12.2586 9.11073 17.8702
440 1 -1.1104 12.2586 9.11083 15.0812
441 1 -1.1104 12.2571 6.32013 17.8702
442 1 -1.1104 12.2603 11.9013 17.8712
443 2 2.2208 10.8647 10.5071 19.2654
444 1 -1.1104 12.2569 6.32015 15.0804
445 1 -1.1104 12.2601 11.9015 15.0813
446 1 -1.1104 9.4692 9.11056 17.8706
447 2 2.2208 8.07366 7.71645 19.265
448 2 2.2208 8.07687 13.2974 19.266
449 1 -1.1104 9.46906 9.11064 15.0808
450 2 2.2208 8.07519 10.5071 16.476
451 1 -1.1104 9.46756 6.32 17.8698
452 1 -1.1104 9.4707 11.9011 17.8708
453 1 -1.1104 9.46755 6.32 15.0808
454 1 -1.1104 9.4708 11.9013 15.0817
456 1 -1.1104 9.46913 9.11046 20.6597
457 1 -1.1104 9.47083 11.9009 20.6607
462 1 -1.1104 12.257 6.32006 20.6593
459 1 -1.1104 6.67813 6.31985 20.6593
578 2 2.2208 13.6526 7.7167 19.265
458 1 -1.1104 12.2587 9.11061 20.6601
460 1 -1.1104 9.46768 6.31996 20.6596
461 1 -1.1104 12.2602 11.9011 20.6603
554 2 2.2208 13.6575 16.0888 16.4772
466 2 2.2208 5.29091 18.8784 16.4779
467 1 -1.1104 1.10393 14.6914 17.8714
468 1 -1.1104 1.1073 20.2722 17.8728
469 1 -1.1104 1.10408 14.6916 15.0824
470 1 -1.1104 1.10746 20.2725 15.0837
471 1 -1.1104 1.10573 17.4818 17.8724
472 2 2.2208 5.28911 16.0877 19.2667
473 2 2.2208 5.2926 21.6683 19.2681
474 1 -1.1104 1.10569 17.4821 15.0826
475 1 -1.1104 3.89352 14.6913 17.8718
476 1 -1.1104 3.89698 20.272 17.8732
477 2 2.2208 2.50131 18.8781 19.2674
478 1 -1.1104 3.89349 14.6915 15.082
479 1 -1.1104 3.89701 20.2724 15.0833
480 2 2.2208 2.49963 16.088 16.4772
481 2 2.2208 2.50308 21.6687 16.4786
482 1 -1.1104 3.89518 17.4817 17.8721
483 1 -1.1104 3.89534 17.482 15.083
486 1 -1.1104 3.89684 20.2718 20.6623
491 1 -1.1104 3.89528 17.4815 20.6619
488 1 -1.1104 6.68652 20.2718 20.6626
639 1 -1.1104 1.10406 14.6913 20.6612
497 1 -1.1104 6.68294 14.6914 17.8714
668 1 -1.1104 6.68469 17.4816 20.6615
640 1 -1.1104 1.10742 20.272 20.6627
493 1 -1.1104 3.89342 14.6912 20.6609
579 2 2.2208 13.6541 10.5074 16.476
487 1 -1.1104 6.6848 17.4818 17.8724
485 1 -1.1104 6.68307 14.6916 15.0824
669 1 -1.1104 9.47592 20.2722 20.6621
495 1 -1.1104 12.262 14.6916 20.6613
496 1 -1.1104 6.68669 20.2727 15.0837
494 1 -1.1104 6.68479 17.4822 15.0826
484 1 -1.1104 6.68649 20.2722 17.8727
667 1 -1.1104 12.2654 20.2727 20.6625
498 2 2.2208 10.8699 18.8793 16.4778
499 1 -1.1104 12.2619 14.6919 17.8714
500 1 -1.1104 12.2654 20.2735 17.8725
501 1 -1.1104 12.262 14.6923 15.0824
502 1 -1.1104 12.2655 20.2742 15.0837
503 1 -1.1104 12.2637 17.4826 17.8724
504 2 2.2208 10.8681 16.0881 19.2666
505 2 2.2208 10.8716 21.6693 19.2679
506 1 -1.1104 12.2637 17.4832 15.0826
507 1 -1.1104 9.47251 14.6916 17.8718
508 1 -1.1104 9.47606 20.2727 17.8731
509 2 2.2208 8.08036 18.8783 19.2673
510 1 -1.1104 9.47246 14.692 15.0819
511 1 -1.1104 9.47614 20.2735 15.0832
512 2 2.2208 8.07864 16.0882 16.4772
513 2 2.2208 8.08227 21.6693 16.4785
514 1 -1.1104 9.47423 17.4822 17.8719
515 1 -1.1104 9.47434 17.4827 15.083
673 1 -1.1104 9.47428 17.4818 20.6619
518 1 -1.1104 6.68305 14.6912 20.6613
347 2 2.2208 8.07527 10.507 27.634
516 1 -1.1104 9.47245 14.6913 20.6608
370 1 -1.1104 3.88556 0.738755 20.659
551 1 -1.1104 6.67497 0.738759 20.6587
329 2 2.2208 5.2809 2.13542 27.6326
529 2 2.2208 5.28108 2.13532 22.0537
530 1 -1.1104 1.09434 -2.05174 23.4479
531 1 -1.1104 1.09759 3.52936 23.4484
532 1 -1.1104 1.09432 -2.0517 26.2377
533 1 -1.1104 1.09759 3.52938 26.2382
534 1 -1.1104 1.09605 0.738823 23.4484
535 2 2.2208 5.27937 -0.65517 24.8429
536 1 -1.1104 1.0959 0.738863 26.2375
537 1 -1.1104 3.88385 -2.05172 23.4483
538 1 -1.1104 3.88717 3.52936 23.4487
539 2 2.2208 2.49154 2.13538 24.8432
540 1 -1.1104 3.88374 -2.05168 26.2374
541 1 -1.1104 3.88699 3.5294 26.2379
542 2 2.2208 2.48996 -0.655222 22.0535
543 1 -1.1104 3.88546 0.738837 23.4481
544 1 -1.1104 3.88543 0.738853 26.2379
545 2 2.2208 5.28262 4.92589 24.8435
546 2 2.2208 2.49318 4.92583 22.054
547 1 -1.1104 6.67655 3.52941 26.2382
555 1 -1.1104 6.67324 -2.05171 26.2377
663 2 2.2208 13.6558 13.2975 24.8451
607 2 2.2208 13.651 4.92601 22.054
557 1 -1.1104 6.67483 0.738891 26.2376
558 1 -1.1104 6.67656 3.52935 23.4484
327 2 2.2208 2.48981 -0.655148 27.6323
403 1 -1.1104 9.46447 0.738809 20.6591
409 1 -1.1104 12.2538 0.738807 20.6588
553 1 -1.1104 9.46276 -2.05182 20.6586
662 2 2.2208 13.6608 21.6692 22.0574
331 2 2.2208 13.6509 4.92592 27.633
559 1 -1.1104 6.67327 -2.05175 23.4479
340 2 2.2208 10.8598 2.13538 27.6327
407 1 -1.1104 12.2522 -2.05186 20.659
556 1 -1.1104 6.67498 0.738806 23.4485
560 2 2.2208 10.86 2.13539 22.0537
561 1 -1.1104 12.2521 -2.05181 23.448
562 1 -1.1104 12.2554 3.52944 23.4484
563 1 -1.1104 12.2521 -2.05174 26.2378
564 1 -1.1104 12.2554 3.52937 26.2383
565 1 -1.1104 12.2538 0.738819 23.4485
566 2 2.2208 10.8582 -0.655206 24.843
567 1 -1.1104 12.2537 0.738844 26.2376
568 1 -1.1104 9.46273 -2.05178 23.4484
569 1 -1.1104 9.46608 3.52939 23.4488
570 2 2.2208 8.07046 2.1354 24.8432
571 1 -1.1104 9.46263 -2.05173 26.2374
572 1 -1.1104 9.46594 3.52943 26.2379
573 2 2.2208 8.06887 -0.65523 22.0535
574 1 -1.1104 9.46436 0.738842 23.4482
575 1 -1.1104 9.46432 0.738847 26.238
576 2 2.2208 10.8615 4.92595 24.8435
577 2 2.2208 8.07213 4.9259 22.054
405 2 2.2208 13.6493 2.13539 24.8432
549 2 2.2208 13.6558 13.2978 19.266
337 2 2.2208 8.06871 -0.655155 27.6324
341 2 2.2208 8.07199 4.92594 27.633
580 1 -1.1104 9.47586 20.2721 26.2412
584 1 -1.1104 3.89017 9.1103 20.6598
582 1 -1.1104 1.10228 11.9008 20.6604
342 2 2.2208 2.49631 10.507 27.634
345 2 2.2208 5.28414 7.71646 27.6335
586 2 2.2208 5.28419 7.71634 22.0545
587 2 2.2208 5.28741 13.2972 22.0556
588 1 -1.1104 1.10071 9.11035 23.4493
589 1 -1.1104 1.10082 9.11042 26.2391
590 1 -1.1104 1.09925 6.31984 23.4492
591 1 -1.1104 1.10246 11.9008 23.4502
592 2 2.2208 5.28578 10.5068 24.8445
593 1 -1.1104 1.0991 6.31992 26.2383
594 1 -1.1104 1.10234 11.9009 26.2393
595 1 -1.1104 3.89029 9.11029 23.4497
596 2 2.2208 2.4947 7.71637 24.844
597 2 2.2208 2.49797 13.2973 24.845
598 1 -1.1104 3.89015 9.11038 26.2388
599 2 2.2208 2.4963 10.5068 22.055
600 1 -1.1104 3.88862 6.31984 23.4488
601 1 -1.1104 3.89178 11.9007 23.4499
602 1 -1.1104 3.88868 6.31988 26.2386
603 1 -1.1104 3.89194 11.9009 26.2397
605 1 -1.1104 6.67976 9.1104 26.2392
613 1 -1.1104 6.67965 9.11032 23.4493
614 1 -1.1104 6.6813 11.9008 26.2393
606 1 -1.1104 6.6814 11.9008 23.4502
615 1 -1.1104 6.67804 6.31993 26.2383
612 1 -1.1104 6.6782 6.31984 23.4492
343 2 2.2208 5.28748 13.2974 27.6345
346 2 2.2208 10.8631 7.71648 27.6334
348 2 2.2208 10.8664 13.2975 27.6346
616 1 -1.1104 9.46923 9.1104 23.4496
617 1 -1.1104 12.2602 11.9009 26.2393
618 1 -1.1104 12.257 6.31992 26.2383
619 2 2.2208 10.8647 10.5069 24.8445
620 1 -1.1104 12.2603 11.901 23.4502
621 1 -1.1104 12.2571 6.31999 23.4491
622 1 -1.1104 12.2587 9.11042 26.2391
623 1 -1.1104 12.2586 9.1105 23.4492
624 1 -1.1104 9.47093 11.9009 26.2397
625 1 -1.1104 9.46762 6.31994 26.2386
626 1 -1.1104 9.47076 11.9008 23.4498
627 1 -1.1104 9.46758 6.31992 23.4488
628 2 2.2208 8.07523 10.5069 22.055
629 1 -1.1104 9.46909 9.11045 26.2388
630 2 2.2208 8.07694 13.2973 24.845
631 2 2.2208 8.07365 7.71642 24.844
632 2 2.2208 10.8631 7.71652 22.0544
633 2 2.2208 10.8664 13.2974 22.0555
379 2 2.2208 13.6542 10.5071 22.055
489 2 2.2208 13.6526 7.71648 24.8439
330 2 2.2208 13.6542 10.507 27.634
349 2 2.2208 2.49968 16.088 27.6351
492 1 -1.1104 1.10563 17.4817 20.6616
338 2 2.2208 2.49304 4.92594 27.633
336 2 2.2208 2.50314 21.6689 27.6368
661 1 -1.1104 6.68481 17.4815 23.4514
670 1 -1.1104 6.68296 14.6911 23.4504
641 2 2.2208 2.50301 21.6683 22.0578
642 1 -1.1104 3.89512 17.4815 23.451
643 1 -1.1104 1.1058 17.4817 23.4514
644 1 -1.1104 3.89346 14.6913 26.2399
645 1 -1.1104 3.89533 17.4817 26.2409
646 2 2.2208 2.50133 18.8782 24.8464
647 1 -1.1104 3.89681 20.2721 26.2413
648 2 2.2208 5.29084 18.8779 22.0569
649 1 -1.1104 1.10397 14.6913 23.4504
650 1 -1.1104 1.10726 20.272 23.4519
651 2 2.2208 5.28914 16.0877 24.8456
652 2 2.2208 5.29258 21.6683 24.8472
653 1 -1.1104 1.10414 14.6914 26.2402
654 1 -1.1104 1.10563 17.4819 26.2406
655 1 -1.1104 1.10758 20.2723 26.2417
656 1 -1.1104 3.89359 14.6912 23.4508
657 1 -1.1104 3.897 20.2718 23.4522
658 2 2.2208 2.49962 16.0877 22.0562
526 1 -1.1104 6.68659 20.272 26.2416
659 1 -1.1104 6.68314 14.6913 26.2402
660 1 -1.1104 6.68464 17.4817 26.2405
609 1 -1.1104 12.2636 17.4819 26.2405
326 2 2.2208 5.2909 18.8783 27.6358
335 2 2.2208 8.08217 21.6687 27.6367
552 2 2.2208 10.8681 16.0879 24.8456
374 2 2.2208 13.6592 18.8786 24.8463
517 2 2.2208 13.6575 16.0881 22.0562
665 2 2.2208 8.08205 21.6684 22.0576
637 2 2.2208 10.8698 18.8783 22.0567
636 1 -1.1104 9.47433 17.4818 26.2409
524 1 -1.1104 9.47601 20.272 23.4521
674 1 -1.1104 12.2655 20.2724 26.2416
548 2 2.2208 8.08035 18.8781 24.8463
519 1 -1.1104 12.2636 17.4821 20.6614
671 1 -1.1104 12.2619 14.6914 23.4504
672 1 -1.1104 9.47259 14.6913 23.4507
666 1 -1.1104 12.2653 20.2723 23.4516
638 1 -1.1104 9.47414 17.4816 23.451
664 1 -1.1104 12.2637 17.4819 23.4514
520 1 -1.1104 12.2621 14.6915 26.2403
550 2 2.2208 10.8715 21.6687 24.847
635 2 2.2208 8.07863 16.0877 22.0561
525 1 -1.1104 6.68632 20.2718 23.4518
339 2 2.2208 10.8699 18.8785 27.6358
675 1 -1.1104 9.47246 14.6914 26.2399
380 2 2.2208 13.6477 -0.655269 22.0536
610 2 2.2208 13.6477 -0.655319 16.4748
583 2 2.2208 13.646 -3.44584 24.8429
465 2 2.2208 2.48825 -3.44572 24.8428
333 2 2.2208 5.27764 -3.44571 27.6322
375 2 2.2208 5.27775 -3.4458 22.0534
463 2 2.2208 5.27772 -3.44589 16.4745
433 2 2.2208 8.06715 -3.44579 24.8428
490 2 2.2208 10.8566 -3.44588 22.0535
382 2 2.2208 8.0672 -3.44589 19.264
406 2 2.2208 10.8566 -3.44594 16.4747
332 2 2.2208 10.8565 -3.44577 27.6323
464 2 2.2208 2.48829 -3.44583 19.2639
701 2 2.2208 5.29472 24.4598 5.32193
702 2 2.2208 5.2989 30.0411 5.3233
703 1 -1.1104 1.11091 25.8538 1.13821
704 1 -1.1104 1.11126 25.8543 3.9278
705 1 -1.1104 1.10941 23.0633 1.1377
706 1 -1.1104 1.11323 28.6446 1.13937
707 2 2.2208 5.29654 27.2501 2.53356
708 1 -1.1104 1.10924 23.0636 3.9267
709 1 -1.1104 1.113 28.645 3.92818
710 1 -1.1104 3.90074 25.8534 1.13859
711 2 2.2208 2.50506 24.4598 2.53267
712 2 2.2208 2.50926 30.0414 2.53438
713 1 -1.1104 3.90059 25.8537 3.9275
714 2 2.2208 2.50713 27.2507 5.32261
715 1 -1.1104 3.89864 23.0629 1.13732
716 1 -1.1104 3.90236 28.6439 1.13905
717 1 -1.1104 3.89901 23.0632 3.92703
718 1 -1.1104 3.90277 28.6442 3.92858
734 1 -1.1104 6.6923 28.6435 1.13948
756 1 -1.1104 6.69258 28.6439 6.71796
719 1 -1.1104 1.11115 25.8542 6.71669
726 1 -1.1104 1.11319 28.6449 6.71768
725 1 -1.1104 1.10947 23.0636 6.71631
724 1 -1.1104 3.90275 28.6441 6.71735
733 1 -1.1104 6.68832 23.063 3.92662
721 1 -1.1104 6.69038 25.8536 6.71675
1375 2 2.2208 13.6627 24.463 13.6898
873 1 -1.1104 3.90088 25.8537 6.71713
720 1 -1.1104 3.89889 23.0633 6.71597
1387 2 2.2208 10.8756 27.2537 13.6903
731 1 -1.1104 6.68997 25.8531 1.13818
730 1 -1.1104 6.68848 23.0627 1.13766
729 1 -1.1104 6.69217 28.6437 3.92821
735 1 -1.1104 6.69044 25.8534 3.92793
736 2 2.2208 10.8737 24.4606 5.32207
737 2 2.2208 10.8777 30.0423 5.32384
738 1 -1.1104 12.269 25.8537 1.13804
739 1 -1.1104 12.2696 25.8544 3.92814
740 1 -1.1104 12.2675 23.0633 1.13763
741 1 -1.1104 12.2714 28.6442 1.13946
742 2 2.2208 10.8755 27.2506 2.53367
743 1 -1.1104 12.2673 23.0638 3.92666
744 1 -1.1104 12.2712 28.6449 3.9285
745 1 -1.1104 9.47988 25.8533 1.13863
746 2 2.2208 8.08411 24.4596 2.53267
747 2 2.2208 8.08813 30.0409 2.53456
748 1 -1.1104 9.47975 25.8537 3.92754
749 2 2.2208 8.08622 27.2506 5.32278
750 1 -1.1104 9.47773 23.0629 1.13719
751 1 -1.1104 9.48146 28.6436 1.13902
752 1 -1.1104 9.47815 23.0633 3.92714
753 1 -1.1104 9.48211 28.6442 3.92892
755 1 -1.1104 12.2693 25.8553 6.71707
955 2 2.2208 13.663 24.4605 2.53265
758 1 -1.1104 9.48022 25.8543 6.7175
926 2 2.2208 13.6667 30.0419 2.53457
757 1 -1.1104 12.2677 23.0645 6.71667
898 1 -1.1104 9.48197 28.6445 6.71763
732 1 -1.1104 6.68869 23.0633 6.71646
760 2 2.2208 5.30424 35.6235 5.32465
761 1 -1.1104 1.11493 31.4354 1.13986
762 1 -1.1104 1.11954 37.0179 1.14145
763 1 -1.1104 1.11532 31.4359 3.9293
764 1 -1.1104 1.11964 37.0184 3.93061
765 1 -1.1104 1.11769 34.2265 1.14126
766 2 2.2208 5.30113 32.8321 2.53544
767 2 2.2208 5.30699 38.4157 2.53658
768 1 -1.1104 1.11728 34.2269 3.9296
769 1 -1.1104 3.9049 31.4346 1.14031
770 1 -1.1104 3.90944 37.0168 1.14177
771 2 2.2208 2.51462 35.6239 2.53625
772 1 -1.1104 3.90469 31.4348 3.92887
773 1 -1.1104 3.9091 37.0164 3.92955
774 2 2.2208 2.51192 32.8326 5.32396
775 2 2.2208 2.51868 38.4155 5.32451
776 1 -1.1104 3.90667 34.2255 1.14066
777 1 -1.1104 3.90703 34.2256 3.93001
788 1 -1.1104 6.69666 34.225 1.14122
785 1 -1.1104 6.69858 37.0161 1.1408
787 1 -1.1104 6.69457 31.4342 3.92937
931 1 -1.1104 3.90722 34.2246 6.71842
786 1 -1.1104 6.69869 37.015 3.93029
784 1 -1.1104 6.69399 31.434 1.1399
781 1 -1.1104 1.11528 31.4356 6.71795
780 1 -1.1104 6.69927 37.0128 6.71843
779 1 -1.1104 6.69656 34.2245 3.9294
778 1 -1.1104 1.12024 37.017 6.71866
929 1 -1.1104 1.11749 34.2265 6.71905
875 2 2.2208 13.6689 32.8346 5.32469
789 2 2.2208 10.8818 35.6254 5.32531
790 1 -1.1104 12.2729 31.4346 1.13981
791 1 -1.1104 12.2768 37.0163 1.14118
792 1 -1.1104 12.2739 31.4355 3.92993
793 1 -1.1104 12.2784 37.0166 3.93017
794 1 -1.1104 12.2756 34.2253 1.14086
795 2 2.2208 10.8794 32.8325 2.53574
796 2 2.2208 10.8814 38.4174 2.53791
797 1 -1.1104 12.2757 34.226 3.93008
798 1 -1.1104 9.48403 31.4342 1.14042
799 1 -1.1104 9.48807 37.0168 1.14165