ITEM: TIMESTEP
306
ITEM: NUMBER OF ATOMS
17760
ITEM: BOX BOUNDS pp pp pp
-2.7717828229332220e-01 2.7617178282293317e+01
-3.4472205766305355e+00 3.3152722057663055e+02
-2.7717827830221448e-01 2.7617178278302212e+01
ITEM: ATOMS id type q x y z
1 2 2.2208 5.27182 2.12925 5.30892
2 1 -1.1104 1.08495 -2.05056 1.12372
3 1 -1.1104 1.08842 3.52082 1.12492
4 1 -1.1104 1.08509 -2.05051 3.91353
5 1 -1.1104 1.08857 3.52083 3.9147
6 1 -1.1104 1.08683 0.735125 1.12471
7 2 2.2208 5.27006 -0.656349 2.51891
8 1 -1.1104 1.08671 0.735153 3.91374
9 1 -1.1104 3.87453 -2.05054 1.12409
10 1 -1.1104 3.878 3.52076 1.1253
11 2 2.2208 2.48236 2.12934 2.51952
12 1 -1.1104 3.8744 -2.05049 3.91313
13 1 -1.1104 3.87788 3.52076 3.91434
14 2 2.2208 2.48064 -0.656313 5.30834
15 2 2.2208 2.48408 4.91497 5.30951
16 1 -1.1104 3.87613 0.7351 1.12432
17 1 -1.1104 3.87628 0.735117 3.9141
18 2 2.2208 5.27351 4.91491 2.52012
32 2 2.2208 5.26832 -3.44193 5.30775
204 2 2.2208 2.47886 -3.44195 2.51833
174 1 -1.1104 1.08498 -2.05053 6.70256
29 1 -1.1104 1.08686 0.735109 6.70354
26 1 -1.1104 6.66735 3.52057 6.70376
28 1 -1.1104 1.08847 3.52074 6.70375
19 1 -1.1104 3.87618 0.735077 6.70316
173 1 -1.1104 3.87801 3.52068 6.70411
22 1 -1.1104 6.66384 -2.05058 1.12369
30 1 -1.1104 3.87453 -2.05052 6.70294
679 2 2.2208 8.07119 18.8409 13.6812
91 1 -1.1104 9.46682 20.2319 12.2869
113 1 -1.1104 12.253 14.6618 12.2852
33 1 -1.1104 6.6656 0.735042 3.91372
23 1 -1.1104 6.66746 3.52065 3.9147
35 1 -1.1104 6.66398 -2.05054 3.9135
59 1 -1.1104 6.66575 0.734998 6.70352
25 1 -1.1104 6.6673 3.52065 1.12494
202 2 2.2208 10.8472 -3.44204 5.30776
34 1 -1.1104 6.66572 0.73502 1.12468
36 2 2.2208 10.8507 2.12909 5.30891
37 1 -1.1104 12.2428 -2.0507 1.12368
38 1 -1.1104 12.2462 3.5205 1.12492
39 1 -1.1104 12.2429 -2.05067 3.91349
40 1 -1.1104 12.2464 3.5205 3.9147
41 1 -1.1104 12.2446 0.734904 1.12465
42 2 2.2208 10.849 -0.656465 2.51888
43 1 -1.1104 12.2445 0.734912 3.91369
44 1 -1.1104 9.45343 -2.05064 1.12405
45 1 -1.1104 9.45692 3.52055 1.1253
46 2 2.2208 8.06126 2.12919 2.5195
47 1 -1.1104 9.45331 -2.05061 3.91312
48 1 -1.1104 9.45679 3.52055 3.91433
49 2 2.2208 8.05954 -0.656414 5.30832
50 1 -1.1104 9.45504 0.734959 1.12429
51 1 -1.1104 9.4552 0.734969 3.91407
52 2 2.2208 8.06298 4.91474 5.30954
53 2 2.2208 10.8524 4.91472 2.52014
206 1 -1.1104 9.45693 3.52047 6.70412
56 1 -1.1104 12.2463 3.52042 6.70374
57 1 -1.1104 9.45344 -2.05063 6.70292
58 1 -1.1104 9.45509 0.734928 6.70313
27 1 -1.1104 6.66387 -2.05055 6.70255
54 1 -1.1104 12.2447 0.73486 6.7035
20 2 2.2208 8.05777 -3.44199 2.51832
681 2 2.2208 8.05777 -3.44214 13.6761
61 2 2.2208 5.2752 7.70049 5.31012
62 2 2.2208 5.27851 13.2718 5.31138
63 1 -1.1104 1.09181 9.09231 1.12611
64 1 -1.1104 1.09195 9.09229 3.91583
65 1 -1.1104 1.09027 6.30655 1.12587
66 1 -1.1104 1.09363 11.8782 1.12711
67 2 2.2208 5.27685 10.4863 2.52136
68 1 -1.1104 1.09015 6.30653 3.9149
69 1 -1.1104 1.09351 11.8781 3.91612
70 1 -1.1104 3.88137 9.09216 1.12648
71 2 2.2208 2.48576 7.70072 2.5207
72 2 2.2208 2.48909 13.2723 2.52201
73 1 -1.1104 3.88124 9.09212 3.91552
74 2 2.2208 2.48744 10.4864 5.31068
75 1 -1.1104 3.87955 6.30643 1.12554
76 1 -1.1104 3.88286 11.8779 1.12684
77 1 -1.1104 3.87969 6.30642 3.91527
78 1 -1.1104 3.88301 11.8779 3.91648
93 1 -1.1104 6.66902 6.30626 3.91496
82 1 -1.1104 6.67066 9.09194 1.12621
86 1 -1.1104 3.88292 11.8776 6.70554
89 1 -1.1104 3.87959 6.30629 6.70433
88 1 -1.1104 1.09185 9.09209 6.70488
84 1 -1.1104 6.66915 6.30629 1.12592
261 1 -1.1104 6.67071 9.09173 6.70496
87 1 -1.1104 1.0936 11.8778 6.70583
80 1 -1.1104 3.88135 9.09194 6.70524
83 1 -1.1104 6.67246 11.8776 1.1272
81 1 -1.1104 6.67081 9.09191 3.91591
85 1 -1.1104 1.09026 6.30642 6.70467
314 1 -1.1104 9.46519 17.4475 9.49668
324 2 2.2208 8.07125 18.8422 8.10211
90 1 -1.1104 6.66914 6.30615 6.7047
92 1 -1.1104 6.67233 11.8776 3.91622
94 2 2.2208 10.8541 7.70024 5.31018
95 2 2.2208 10.8575 13.2714 5.31147
96 1 -1.1104 12.2496 9.09171 1.12627
97 1 -1.1104 12.2498 9.09169 3.916
98 1 -1.1104 12.2481 6.3061 1.12596
99 1 -1.1104 12.2515 11.8773 1.12731
100 2 2.2208 10.8558 10.4859 2.52145
101 1 -1.1104 12.248 6.30609 3.91497
102 1 -1.1104 12.2513 11.8773 3.91628
103 1 -1.1104 9.4603 9.09177 1.1266
104 2 2.2208 8.06465 7.70041 2.52077
105 2 2.2208 8.06796 13.2717 2.5221
106 1 -1.1104 9.46015 9.09174 3.91562
107 2 2.2208 8.06631 10.4859 5.31078
108 1 -1.1104 9.45847 6.30615 1.12559
109 1 -1.1104 9.46178 11.8774 1.12693
110 1 -1.1104 9.45862 6.30615 3.91533
111 1 -1.1104 9.46193 11.8774 3.9166
117 1 -1.1104 9.46027 9.09158 6.70535
112 1 -1.1104 9.4585 6.30602 6.70438
263 1 -1.1104 12.2481 6.30597 6.70475
231 2 2.2208 13.647 13.2716 2.52215
251 1 -1.1104 6.67244 11.8773 6.7059
115 1 -1.1104 12.2497 9.09153 6.70502
264 1 -1.1104 12.2514 11.8771 6.70602
116 1 -1.1104 9.46184 11.8771 6.70563
9121 2 2.2208 -0.308807 -0.656329 2.51892
9123 2 2.2208 -0.307049 2.12934 5.30893
119 2 2.2208 5.28176 18.8434 5.31277
120 1 -1.1104 1.0951 14.6641 1.12755
121 1 -1.1104 1.09838 20.2366 1.1292
122 1 -1.1104 1.09527 14.664 3.91716
123 1 -1.1104 1.09853 20.2363 3.91863
124 1 -1.1104 1.09694 17.4502 1.12866
125 2 2.2208 5.28012 16.0579 2.52279
126 2 2.2208 5.28336 21.6299 2.52435
127 1 -1.1104 1.09681 17.4501 3.9176
128 1 -1.1104 3.88466 14.6638 1.12787
129 1 -1.1104 3.88789 20.236 1.12945
130 2 2.2208 2.49236 18.8444 2.52355
131 1 -1.1104 3.88453 14.6637 3.91688
132 1 -1.1104 3.88779 20.2357 3.91837
133 2 2.2208 2.49074 16.058 5.31205
134 2 2.2208 2.49403 21.6301 5.31345
135 1 -1.1104 3.88607 17.4498 1.1284
136 1 -1.1104 3.88625 17.4496 3.91788
141 1 -1.1104 6.6756 17.4491 3.91765
290 1 -1.1104 1.09685 17.4495 6.70721
139 1 -1.1104 3.8862 17.4491 6.70693
171 1 -1.1104 6.67401 14.6629 6.70625
287 1 -1.1104 1.09851 20.2355 6.7076
286 1 -1.1104 1.09518 14.6636 6.70619
142 1 -1.1104 3.88462 14.6633 6.70651
313 1 -1.1104 12.2548 17.4471 12.2862
9118 2 2.2208 -0.310546 -3.44209 10.8866
140 1 -1.1104 6.67566 17.4485 6.7072
145 1 -1.1104 6.67571 17.4492 1.12867
318 1 -1.1104 9.46682 20.2336 6.70793
168 1 -1.1104 12.253 14.6626 6.70629
146 1 -1.1104 6.67391 14.6634 1.12763
147 1 -1.1104 6.6771 20.2351 1.12925
137 1 -1.1104 6.67728 20.2349 3.9186
148 1 -1.1104 6.67408 14.6633 3.91721
138 1 -1.1104 6.67729 20.2342 6.70762
149 2 2.2208 10.8608 18.8426 5.31285
150 1 -1.1104 12.2529 14.6629 1.12765
151 1 -1.1104 12.2563 20.2342 1.1292
152 1 -1.1104 12.2531 14.6629 3.91733
153 1 -1.1104 12.2565 20.2341 3.91877
154 1 -1.1104 12.2548 17.4486 1.12877
155 2 2.2208 10.8591 16.0572 2.52285
156 2 2.2208 10.8624 21.6286 2.52442
157 1 -1.1104 12.2547 17.4485 3.91766
158 1 -1.1104 9.4636 14.6631 1.12797
159 1 -1.1104 9.46688 20.2345 1.12951
160 2 2.2208 8.07122 18.8432 2.52358
161 1 -1.1104 9.46347 14.663 3.91695
162 1 -1.1104 9.46677 20.2343 3.91839
163 2 2.2208 8.06961 16.0572 5.3121
164 2 2.2208 8.07287 21.6286 5.31349
165 1 -1.1104 9.46503 17.4487 1.12843
166 1 -1.1104 9.46522 17.4487 3.91796
169 1 -1.1104 12.2548 17.4481 6.70734
170 1 -1.1104 12.2564 20.2335 6.70765
167 1 -1.1104 9.46357 14.6627 6.70661
144 1 -1.1104 9.46517 17.4482 6.70696
176 2 2.2208 10.8472 -3.44211 10.8867
684 2 2.2208 2.47888 -3.44213 13.6761
8910 2 2.2208 -0.308782 -0.656389 8.09777
8901 2 2.2208 -0.307018 2.12912 10.8878
682 2 2.2208 2.4824 2.12901 13.6773
60 2 2.2208 2.47887 -3.44196 8.0972
694 2 2.2208 5.27353 4.91449 13.6779
178 2 2.2208 5.27184 2.12908 10.8878
179 1 -1.1104 1.085 -2.0507 12.2815
180 1 -1.1104 1.08849 3.52046 12.2826
181 1 -1.1104 1.0851 -2.0506 9.4924
182 1 -1.1104 1.08859 3.52061 9.49356
183 1 -1.1104 1.08688 0.734885 12.2824
184 2 2.2208 5.27009 -0.656399 8.09776
185 1 -1.1104 1.08677 0.734999 9.4926
186 1 -1.1104 3.87454 -2.05067 12.2818
187 1 -1.1104 3.87803 3.52042 12.283
188 2 2.2208 2.48239 2.12923 8.09836
189 1 -1.1104 3.87443 -2.05058 9.492
190 1 -1.1104 3.87792 3.52056 9.4932
191 2 2.2208 2.48066 -0.656449 10.8872
192 2 2.2208 2.4841 4.9147 10.8884
193 1 -1.1104 3.87619 0.734885 12.2821
194 1 -1.1104 3.8763 0.734986 9.49297
195 2 2.2208 5.27353 4.91475 8.09895
690 2 2.2208 5.2701 -0.656562 13.6767
9567 2 2.2208 -0.308768 -0.656587 13.6767
55 2 2.2208 5.26832 -3.44202 10.8866
207 1 -1.1104 12.2428 -2.0507 6.70255
288 2 2.2208 10.8624 21.6274 8.10281
208 1 -1.1104 6.66565 0.734923 9.49259
198 1 -1.1104 6.66399 -2.05061 9.49239
200 1 -1.1104 6.66737 3.52033 12.2827
205 1 -1.1104 6.66747 3.52046 9.49355
197 2 2.2208 8.05778 -3.44199 8.0972
688 2 2.2208 10.8525 4.91431 13.6779
687 2 2.2208 8.06128 2.1289 13.6773
199 1 -1.1104 6.66388 -2.0507 12.2815
201 1 -1.1104 6.66576 0.734826 12.2824
209 2 2.2208 10.8508 2.12892 10.8878
210 1 -1.1104 12.2428 -2.05083 12.2815
211 1 -1.1104 12.2463 3.52019 12.2826
212 1 -1.1104 12.2429 -2.05074 9.49238
213 1 -1.1104 12.2464 3.52031 9.49355
214 1 -1.1104 12.2447 0.73469 12.2824
215 2 2.2208 10.849 -0.656521 8.09775
216 1 -1.1104 12.2446 0.73479 9.49257
217 1 -1.1104 9.45345 -2.05076 12.2818
218 1 -1.1104 9.45694 3.52024 12.283
219 2 2.2208 8.0613 2.12909 8.09835
220 1 -1.1104 9.45334 -2.05067 9.49201
221 1 -1.1104 9.45683 3.52037 9.49319
222 2 2.2208 8.05955 -0.656525 10.8872
223 2 2.2208 8.063 4.9145 10.8884
224 1 -1.1104 9.4551 0.73476 12.282
225 1 -1.1104 9.45522 0.734845 9.49296
226 2 2.2208 10.8525 4.91456 8.09896
9146 2 2.2208 -0.305343 4.91506 2.5201
689 2 2.2208 10.849 -0.656675 13.6767
172 1 -1.1104 9.46352 14.6622 9.49569
311 1 -1.1104 9.46358 14.6618 12.2855
315 1 -1.1104 12.2564 20.2323 12.2865
692 2 2.2208 5.27685 10.4854 13.6791
691 2 2.2208 2.48576 7.70009 13.6784
232 2 2.2208 5.2752 7.70013 10.889
233 2 2.2208 5.2785 13.2711 10.8902
234 1 -1.1104 1.09182 9.09158 12.2838
235 1 -1.1104 1.09192 9.09183 9.49466
236 1 -1.1104 1.09026 6.30603 12.2836
237 1 -1.1104 1.09356 11.8771 12.2848
238 2 2.2208 5.27685 10.4859 8.10013
239 1 -1.1104 1.09017 6.30621 9.49375
240 1 -1.1104 1.0935 11.8775 9.49493
241 1 -1.1104 3.88133 9.09144 12.2842
242 2 2.2208 2.48576 7.70046 8.0995
243 2 2.2208 2.48908 13.2718 8.10073
244 1 -1.1104 3.88126 9.09167 9.49435
245 2 2.2208 2.48742 10.4858 10.8895
246 1 -1.1104 3.87959 6.30594 12.2832
247 1 -1.1104 3.88288 11.8769 12.2845
248 1 -1.1104 3.87969 6.30613 9.49411
249 1 -1.1104 3.88298 11.8772 9.49528
262 1 -1.1104 6.66914 6.30582 12.2836
250 1 -1.1104 6.67236 11.877 9.49501
260 1 -1.1104 6.6707 9.09126 12.2839
252 1 -1.1104 6.67079 9.0915 9.49472
259 1 -1.1104 6.67243 11.8767 12.2848
693 2 2.2208 2.48902 13.2711 13.6797
253 1 -1.1104 6.66904 6.30598 9.4938
310 2 2.2208 8.07285 21.6266 10.8922
114 2 2.2208 13.647 13.2711 8.10086
695 2 2.2208 8.06466 7.69984 13.6785
265 1 -1.1104 9.46192 11.8768 9.49539
266 1 -1.1104 9.45861 6.30587 9.49417
267 1 -1.1104 9.46184 11.8765 12.2845
268 1 -1.1104 9.45851 6.30571 12.2833
269 2 2.2208 8.06632 10.4854 10.8896
270 1 -1.1104 9.46018 9.09135 9.49443
271 2 2.2208 8.06797 13.2712 8.1008
272 2 2.2208 8.06467 7.70018 8.09957
273 2 2.2208 10.8541 7.69991 10.889
274 2 2.2208 10.8575 13.2707 10.8903
275 1 -1.1104 12.2497 9.09108 12.2839
276 1 -1.1104 12.2498 9.09131 9.49481
277 1 -1.1104 12.2481 6.30565 12.2836
278 1 -1.1104 12.2514 11.8765 12.2849
279 2 2.2208 10.8558 10.4856 8.10021
280 1 -1.1104 12.248 6.30582 9.49382
281 1 -1.1104 12.2514 11.8768 9.49506
282 1 -1.1104 9.46027 9.09113 12.2842
257 2 2.2208 13.652 21.6267 10.8923
680 2 2.2208 13.647 13.2705 13.6798
696 2 2.2208 10.8558 10.4851 13.6791
698 2 2.2208 8.06795 13.2706 13.6798
676 2 2.2208 13.6503 18.841 13.6812
143 1 -1.1104 3.88779 20.2349 6.70784
323 1 -1.1104 6.67398 14.662 12.2852
309 1 -1.1104 6.67722 20.2323 12.2866
291 1 -1.1104 3.88455 14.6628 9.49564
292 1 -1.1104 3.88619 17.4483 9.4966
293 1 -1.1104 1.09679 17.4481 12.2862
294 2 2.2208 2.49069 16.0569 10.8909
295 2 2.2208 2.49394 21.6279 10.8922
296 1 -1.1104 3.88612 17.4477 12.2859
297 1 -1.1104 3.88773 20.2329 12.2868
298 1 -1.1104 3.88459 14.6623 12.2854
299 1 -1.1104 1.09841 20.2345 9.49729
300 1 -1.1104 1.09681 17.4488 9.49633
301 2 2.2208 5.28338 21.6283 8.10272
302 1 -1.1104 1.0952 14.6631 9.49593
303 2 2.2208 5.28014 16.0571 8.10143
304 1 -1.1104 1.09835 20.2336 12.2866
305 1 -1.1104 1.0951 14.6626 12.2851
306 2 2.2208 5.28173 18.8419 10.8916
307 1 -1.1104 3.88782 20.2339 9.49702
308 2 2.2208 2.49235 18.8432 8.1021
700 2 2.2208 2.49225 18.8418 13.6812
699 2 2.2208 5.28008 16.0561 13.6805
697 2 2.2208 5.28326 21.6264 13.6819
118 2 2.2208 13.6453 10.4853 10.8897
79 2 2.2208 13.6504 18.8421 8.10219
9119 2 2.2208 -0.30533 4.91489 8.09893
683 2 2.2208 10.8624 21.6258 13.6818
316 2 2.2208 8.0696 16.0562 10.8909
317 1 -1.1104 12.2564 20.2328 9.49744
285 2 2.2208 10.8608 18.8413 10.8916
312 1 -1.1104 9.46516 17.4469 12.2859
31 2 2.2208 13.6487 16.0561 10.891
258 1 -1.1104 12.2531 14.6622 9.49608
325 1 -1.1104 6.67723 20.2331 9.49725
322 1 -1.1104 6.67565 17.4478 9.49635
289 1 -1.1104 6.67406 14.6624 9.49596
320 1 -1.1104 12.2547 17.4475 9.49637
319 1 -1.1104 6.67565 17.4472 12.2861
321 1 -1.1104 9.46685 20.2328 9.49701
284 2 2.2208 10.8591 16.0566 8.1015
677 2 2.2208 10.8591 16.0557 13.6805
24 2 2.2208 13.6504 18.8429 2.52361
175 2 2.2208 13.6487 16.057 5.31215
8967 2 2.2208 -0.310562 -3.44197 5.30776
283 2 2.2208 13.6521 21.6282 5.31359
9556 2 2.2208 -0.305321 4.91458 13.6778
229 2 2.2208 13.6453 10.4858 5.31083
230 2 2.2208 13.6436 7.70032 2.5208
21 2 2.2208 13.6436 7.70008 8.09959
678 2 2.2208 13.6436 7.69973 13.6785
351 2 2.2208 5.27182 2.12891 16.4667
352 1 -1.1104 1.08497 -2.05086 17.8604
353 1 -1.1104 1.08846 3.52033 17.8616
354 1 -1.1104 1.0851 -2.0508 15.0713
355 1 -1.1104 1.08859 3.52036 15.0725
356 1 -1.1104 1.08686 0.734742 17.8614
357 2 2.2208 5.27005 -0.656659 19.2556
358 1 -1.1104 1.08675 0.734791 15.0715
359 1 -1.1104 3.87452 -2.05083 17.8608
360 1 -1.1104 3.87802 3.52029 17.862
361 2 2.2208 2.48237 2.12895 19.2562
362 1 -1.1104 3.87442 -2.05076 15.0709
363 1 -1.1104 3.8779 3.52033 15.0721
364 2 2.2208 2.48064 -0.656627 16.4661
365 1 -1.1104 3.87615 0.734742 17.861
366 1 -1.1104 3.8763 0.734782 15.0719
367 2 2.2208 2.48409 4.9145 16.4673
368 2 2.2208 5.27351 4.91446 19.2568
384 1 -1.1104 6.66732 3.52021 17.8616
385 1 -1.1104 6.66562 0.734737 15.0715
377 1 -1.1104 3.87786 3.52036 20.6511
533 1 -1.1104 1.08859 3.5204 20.6514
379 1 -1.1104 3.87437 -2.05082 20.6498
378 1 -1.1104 1.0867 0.734787 20.6504
372 1 -1.1104 3.87627 0.734769 20.6508
373 1 -1.1104 1.08509 -2.05085 20.6502
405 1 -1.1104 6.66746 3.52027 20.6514
382 2 2.2208 5.26831 -3.44219 16.4655
344 2 2.2208 8.07277 21.6289 27.6297
383 1 -1.1104 6.66572 0.734687 17.8613
375 1 -1.1104 6.66397 -2.05079 15.0713
376 1 -1.1104 6.66747 3.52024 15.0725
374 1 -1.1104 6.66384 -2.05085 17.8604
386 2 2.2208 10.8507 2.12877 16.4667
387 1 -1.1104 12.2428 -2.05098 17.8604
388 1 -1.1104 12.2462 3.52005 17.8616
389 1 -1.1104 12.2429 -2.05093 15.0713
390 1 -1.1104 12.2464 3.52008 15.0725
391 1 -1.1104 12.2446 0.734542 17.8613
392 2 2.2208 10.849 -0.656772 19.2556
393 2 2.2208 10.8524 4.91427 19.2568
394 1 -1.1104 12.2445 0.734595 15.0715
395 1 -1.1104 9.45342 -2.05092 17.8607
396 1 -1.1104 9.45692 3.52012 17.862
397 2 2.2208 8.06125 2.12883 19.2562
398 1 -1.1104 9.45333 -2.05085 15.0709
399 1 -1.1104 9.4568 3.52015 15.0721
400 2 2.2208 8.05952 -0.656685 16.4661
401 1 -1.1104 9.45505 0.734621 17.861
402 1 -1.1104 9.45519 0.734657 15.0719
403 2 2.2208 8.06298 4.91433 16.4674
559 1 -1.1104 12.2464 3.52011 20.6514
558 1 -1.1104 12.2445 0.734587 20.6504
569 1 -1.1104 9.45517 0.734644 20.6508
560 1 -1.1104 9.45327 -2.05091 20.6498
489 2 2.2208 8.05775 -3.44227 19.255
561 1 -1.1104 6.66556 0.734721 20.6504
573 1 -1.1104 12.2429 -2.05097 20.6502
564 1 -1.1104 6.66396 -2.05086 20.6502
562 1 -1.1104 9.45675 3.52018 20.6511
552 2 2.2208 10.8623 21.6275 24.8404
332 2 2.2208 13.652 21.6283 27.6296
327 2 2.2208 8.06956 16.0573 27.6279
409 2 2.2208 5.27519 7.69992 16.468
410 2 2.2208 5.27845 13.2707 16.4693
411 1 -1.1104 1.09177 9.09146 17.8628
412 1 -1.1104 1.09192 9.09144 15.0736
413 1 -1.1104 1.09028 6.30591 17.8625
414 1 -1.1104 1.09357 11.877 17.8638
415 2 2.2208 5.27682 10.4855 19.2581
416 1 -1.1104 1.09015 6.30591 15.0727
417 1 -1.1104 1.09342 11.8769 15.074
418 1 -1.1104 3.88136 9.09132 17.8632
419 2 2.2208 2.48575 7.7001 19.2574
420 2 2.2208 2.48899 13.2712 19.2588
421 1 -1.1104 3.88122 9.0913 15.0733
422 2 2.2208 2.48739 10.4855 16.4686
423 1 -1.1104 3.87956 6.30582 17.8622
424 1 -1.1104 3.8828 11.8768 17.8635
425 1 -1.1104 3.8797 6.30583 15.0731
426 1 -1.1104 3.88298 11.8767 15.0743
431 1 -1.1104 6.66915 6.3057 17.8626
429 1 -1.1104 6.66902 6.30571 15.0727
435 1 -1.1104 3.883 11.877 20.6533
601 1 -1.1104 1.09195 9.09165 20.6526
433 1 -1.1104 3.87971 6.30594 20.652
434 1 -1.1104 3.88118 9.09148 20.6523
603 1 -1.1104 1.09336 11.8773 20.653
427 1 -1.1104 6.67065 9.09113 17.8629
464 1 -1.1104 6.67082 9.09129 20.6527
460 1 -1.1104 6.66899 6.3058 20.6517
602 1 -1.1104 1.09013 6.30603 20.6516
438 1 -1.1104 6.6708 9.09112 15.0737
437 1 -1.1104 6.67245 11.8765 17.8639
428 1 -1.1104 6.67231 11.8765 15.074
463 1 -1.1104 6.67223 11.8767 20.6531
592 2 2.2208 13.647 13.2705 19.2589
439 2 2.2208 10.8541 7.69968 16.468
440 2 2.2208 10.8574 13.2703 16.4693
441 1 -1.1104 12.2496 9.09091 17.8629
442 1 -1.1104 12.2498 9.09093 15.0738
443 1 -1.1104 12.2481 6.30551 17.8626
444 1 -1.1104 12.2515 11.8762 17.8639
445 2 2.2208 10.8558 10.4851 19.2582
446 1 -1.1104 12.248 6.30554 15.0728
447 1 -1.1104 12.2513 11.8763 15.074
448 1 -1.1104 9.4603 9.09097 17.8632
449 2 2.2208 8.06465 7.69982 19.2575
450 2 2.2208 8.06791 13.2706 19.2589
451 1 -1.1104 9.46016 9.09098 15.0734
452 2 2.2208 8.06631 10.4852 16.4686
453 1 -1.1104 9.45848 6.30558 17.8622
454 1 -1.1104 9.46177 11.8763 17.8636
455 1 -1.1104 9.45862 6.30559 15.0731
456 1 -1.1104 9.46194 11.8763 15.0744
462 1 -1.1104 12.2498 9.09105 20.6528
466 1 -1.1104 9.46012 9.09111 20.6524
457 1 -1.1104 12.2479 6.30561 20.6517
461 1 -1.1104 9.45863 6.30567 20.6521
458 1 -1.1104 12.2513 11.8764 20.6531
465 1 -1.1104 9.46196 11.8765 20.6534
430 2 2.2208 13.6486 16.0561 22.0491
467 2 2.2208 5.28161 18.8412 16.4708
468 1 -1.1104 1.09497 14.6625 17.8643
469 1 -1.1104 1.0981 20.2335 17.866
470 1 -1.1104 1.09518 14.6624 15.075
471 1 -1.1104 1.09835 20.2332 15.0766
472 1 -1.1104 1.0968 17.448 17.8654
473 2 2.2208 5.28001 16.0562 19.2596
474 2 2.2208 5.28311 21.6267 19.2614
475 1 -1.1104 1.09663 17.4478 15.0755
476 1 -1.1104 3.88459 14.6622 17.8646
477 1 -1.1104 3.88773 20.2327 17.8662
478 2 2.2208 2.49217 18.8421 19.2605
479 1 -1.1104 3.88444 14.6621 15.0747
480 1 -1.1104 3.88757 20.2325 15.0763
481 2 2.2208 2.49061 16.0564 16.47
482 2 2.2208 2.49376 21.627 16.4717
483 1 -1.1104 3.88591 17.4475 17.8651
484 1 -1.1104 3.88616 17.4473 15.0758
487 1 -1.1104 6.67721 20.2317 15.0765
657 1 -1.1104 1.09652 17.4485 20.6547
488 1 -1.1104 1.09522 14.6629 20.6541
656 1 -1.1104 3.88433 14.6625 20.6538
654 1 -1.1104 3.88737 20.2335 20.6557
598 1 -1.1104 6.67406 14.6621 20.6541
347 2 2.2208 5.28169 18.8437 27.6287
498 1 -1.1104 6.67564 17.4469 17.8654
486 1 -1.1104 6.67551 17.4468 15.0755
9424 2 2.2208 -0.310562 -3.44227 22.0444
459 2 2.2208 10.8472 -3.44229 16.4655
655 1 -1.1104 1.09848 20.2342 20.6559
660 1 -1.1104 6.67533 17.4474 20.6547
497 1 -1.1104 6.67385 14.6618 17.8643
491 1 -1.1104 6.67406 14.6617 15.075
485 1 -1.1104 6.67694 20.2319 17.866
500 2 2.2208 10.8607 18.8405 16.4708
501 1 -1.1104 12.2529 14.6615 17.8643
502 1 -1.1104 12.2562 20.2315 17.8658
503 1 -1.1104 12.2531 14.6615 15.0751
504 1 -1.1104 12.2564 20.2316 15.0765
505 1 -1.1104 12.2548 17.4466 17.8654
506 2 2.2208 10.8591 16.0557 19.2596
507 2 2.2208 10.8623 21.6256 19.2613
508 1 -1.1104 12.2546 17.4466 15.0754
509 1 -1.1104 9.46358 14.6615 17.8646
510 1 -1.1104 9.46681 20.2314 17.8662
511 2 2.2208 8.07108 18.841 19.2605
512 1 -1.1104 9.46345 14.6615 15.0747
513 1 -1.1104 9.46671 20.2314 15.0762
514 2 2.2208 8.06955 16.0556 16.4701
515 2 2.2208 8.07272 21.6255 16.4716
516 1 -1.1104 9.46498 17.4466 17.8651
517 1 -1.1104 9.4652 17.4466 15.0758
523 1 -1.1104 9.4652 17.447 20.655
524 1 -1.1104 9.46333 14.6618 20.6539
518 1 -1.1104 12.2565 20.2319 20.6558
519 1 -1.1104 9.46644 20.232 20.6556
521 1 -1.1104 12.2545 17.4469 20.6546
520 1 -1.1104 6.67723 20.2326 20.6559
334 2 2.2208 5.27179 2.12922 27.6245
336 2 2.2208 2.48406 4.91496 27.6251
534 2 2.2208 5.27178 2.12899 22.0456
535 1 -1.1104 1.08494 -2.05078 23.4392
536 1 -1.1104 1.08842 3.52055 23.4405
537 1 -1.1104 1.08509 -2.05066 26.2291
538 1 -1.1104 1.08858 3.52071 26.2303
539 1 -1.1104 1.08685 0.734882 23.4403
540 2 2.2208 5.27004 -0.656507 24.8344
541 1 -1.1104 1.08668 0.735023 26.2293
542 1 -1.1104 3.87451 -2.05075 23.4396
543 1 -1.1104 3.87801 3.5205 23.4408
544 2 2.2208 2.48235 2.12916 24.8351
545 1 -1.1104 3.87437 -2.05064 26.2287
546 1 -1.1104 3.87784 3.52066 26.2299
547 2 2.2208 2.48062 -0.656594 22.045
548 1 -1.1104 3.87611 0.734878 23.4399
549 1 -1.1104 3.87627 0.735 26.2296
550 2 2.2208 5.2735 4.91473 24.8357
551 2 2.2208 2.48408 4.91465 22.0463
571 1 -1.1104 6.66745 3.52055 26.2303
565 1 -1.1104 6.66571 0.734816 23.4402
554 1 -1.1104 6.66728 3.52041 23.4405
335 2 2.2208 2.48061 -0.656382 27.6239
566 1 -1.1104 6.66396 -2.05067 26.229
490 2 2.2208 2.47886 -3.44213 24.8339
532 2 2.2208 5.26829 -3.44221 22.0444
329 2 2.2208 5.26831 -3.44202 27.6233
9457 2 2.2208 -0.310548 -3.44226 16.4656
567 1 -1.1104 6.66555 0.734941 26.2293
555 2 2.2208 10.8472 -3.44229 22.0444
572 1 -1.1104 6.66381 -2.05077 23.4392
574 2 2.2208 10.8507 2.12885 22.0456
575 1 -1.1104 12.2427 -2.05088 23.4392
576 1 -1.1104 12.2462 3.52026 23.4405
577 1 -1.1104 12.2429 -2.05077 26.229
578 1 -1.1104 12.2464 3.52041 26.2303
579 1 -1.1104 12.2446 0.734696 23.4402
580 2 2.2208 10.849 -0.656609 24.8344
581 1 -1.1104 12.2445 0.734822 26.2292
582 1 -1.1104 9.45342 -2.05083 23.4396
583 1 -1.1104 9.45692 3.52031 23.4408
584 2 2.2208 8.06123 2.12904 24.8351
585 1 -1.1104 9.45328 -2.05072 26.2286
586 1 -1.1104 9.45675 3.52046 26.2299
587 2 2.2208 8.05948 -0.656658 22.045
588 1 -1.1104 9.455 0.73475 23.4398
589 1 -1.1104 9.45518 0.734869 26.2296
590 2 2.2208 8.06296 4.91447 22.0463
591 2 2.2208 10.8524 4.91454 24.8357
408 2 2.2208 2.47886 -3.44225 19.255
340 2 2.2208 8.06296 4.91475 27.6251
338 2 2.2208 10.8472 -3.44211 27.6232
342 2 2.2208 10.8507 2.12908 27.6244
553 2 2.2208 8.05775 -3.44215 24.8338
341 2 2.2208 8.0595 -0.656459 27.6238
343 2 2.2208 2.48742 10.4864 27.6263
604 2 2.2208 5.27518 7.70015 22.0469
605 2 2.2208 5.27843 13.2712 22.0483
606 1 -1.1104 1.09177 9.09191 23.4417
607 1 -1.1104 1.09197 9.09218 26.2314
608 1 -1.1104 1.0903 6.30622 23.4414
609 1 -1.1104 1.09363 11.8777 23.4427
610 2 2.2208 5.27683 10.486 24.837
611 1 -1.1104 1.09012 6.30642 26.2305
612 1 -1.1104 1.09342 11.878 26.2318
613 1 -1.1104 3.88138 9.09177 23.4421
614 2 2.2208 2.48575 7.7005 24.8363
615 2 2.2208 2.48903 13.272 24.8377
616 1 -1.1104 3.88119 9.09201 26.2311
617 2 2.2208 2.48739 10.4859 22.0475
618 1 -1.1104 3.87953 6.30612 23.4411
619 1 -1.1104 3.88278 11.8774 23.4425
620 1 -1.1104 3.8797 6.30633 26.2309
621 1 -1.1104 3.88303 11.8778 26.2322
632 1 -1.1104 6.66916 6.30599 23.4415
630 1 -1.1104 6.67225 11.8774 26.2319
345 2 2.2208 5.27519 7.70052 27.6257
631 1 -1.1104 6.67246 11.8771 23.4428
624 1 -1.1104 6.67083 9.09181 26.2315
346 2 2.2208 5.27848 13.2719 27.6271
623 1 -1.1104 6.66898 6.30618 26.2305
9214 2 2.2208 -0.310565 -3.44208 27.6233
633 1 -1.1104 6.67062 9.09154 23.4418
634 1 -1.1104 9.46031 9.09137 23.4422
635 1 -1.1104 12.2513 11.8771 26.2319
636 1 -1.1104 12.2479 6.30599 26.2306
637 2 2.2208 10.8558 10.4856 24.8371
638 1 -1.1104 12.2515 11.8768 23.4429
639 1 -1.1104 12.2481 6.30579 23.4415
640 1 -1.1104 12.2498 9.09156 26.2316
641 1 -1.1104 12.2496 9.0913 23.4418
642 1 -1.1104 9.46196 11.8772 26.2323
643 1 -1.1104 9.45863 6.30605 26.2309
644 1 -1.1104 9.46173 11.8769 23.4426
645 1 -1.1104 9.45844 6.30585 23.4412
646 2 2.2208 8.06628 10.4855 22.0476
647 1 -1.1104 9.46011 9.09162 26.2312
648 2 2.2208 8.06792 13.2713 24.8378
649 2 2.2208 8.06465 7.70019 24.8364
650 2 2.2208 10.8541 7.69989 22.047
651 2 2.2208 10.8574 13.2708 22.0484
9456 2 2.2208 -0.307031 2.12894 16.4667
348 2 2.2208 8.0663 10.486 27.6264
349 2 2.2208 10.8541 7.70027 27.6258
330 2 2.2208 10.8574 13.2715 27.6272
492 1 -1.1104 3.8862 17.448 20.655
626 2 2.2208 13.6519 21.6264 22.0509
625 1 -1.1104 6.67541 17.4489 26.2335
529 1 -1.1104 6.67568 17.4482 23.4444
350 2 2.2208 2.4907 16.0582 27.6279
652 1 -1.1104 1.09529 14.6639 26.2329
653 2 2.2208 5.2832 21.6289 24.8404
658 2 2.2208 5.28004 16.0573 24.8386
661 1 -1.1104 3.88785 20.2346 23.4453
662 1 -1.1104 3.88463 14.6631 23.4436
663 1 -1.1104 1.09861 20.2362 26.2347
664 1 -1.1104 1.09664 17.4499 26.2335
665 2 2.2208 2.49061 16.0572 22.0491
666 2 2.2208 2.49379 21.6286 22.051
667 1 -1.1104 3.8859 17.4488 23.4442
668 1 -1.1104 1.09691 17.4493 23.4444
669 1 -1.1104 3.8844 14.6636 26.2326
670 1 -1.1104 3.88627 17.4495 26.2338
671 2 2.2208 2.49226 18.8437 24.8394
672 1 -1.1104 3.88753 20.2355 26.2344
673 2 2.2208 5.28158 18.8423 22.05
674 1 -1.1104 1.09497 14.6634 23.4432
675 1 -1.1104 1.09814 20.2353 23.4451
404 2 2.2208 13.647 13.2711 24.8378
328 2 2.2208 2.49397 21.6306 27.6296
593 1 -1.1104 9.46359 14.6623 23.4436
494 1 -1.1104 12.2529 14.6622 23.4433
493 1 -1.1104 12.2561 20.2328 23.445
629 2 2.2208 8.07111 18.8425 24.8395
599 2 2.2208 10.859 16.0566 24.8386
557 1 -1.1104 9.46523 17.4484 26.2338
568 1 -1.1104 9.46651 20.234 26.2344
496 2 2.2208 8.0695 16.0563 22.0492
499 1 -1.1104 12.2531 14.6617 20.6542
527 1 -1.1104 9.46685 20.233 23.4454
594 2 2.2208 8.07262 21.6269 22.051
659 1 -1.1104 6.6738 14.6626 23.4433
530 1 -1.1104 6.6741 14.6631 26.233
600 1 -1.1104 12.2565 20.2337 26.2347
522 1 -1.1104 12.2531 14.6627 26.2331
628 1 -1.1104 12.2545 17.4482 26.2335
526 1 -1.1104 9.46335 14.6628 26.2327
495 2 2.2208 10.8606 18.8413 22.05
528 1 -1.1104 12.2548 17.4475 23.4445
627 1 -1.1104 6.67684 20.2337 23.4452
525 1 -1.1104 6.67732 20.2347 26.2346
331 2 2.2208 10.8607 18.8427 27.6287
622 1 -1.1104 9.46488 17.4477 23.4442
381 2 2.2208 13.6453 10.4853 22.0476
9485 2 2.2208 -0.30879 -0.656677 19.2556
380 2 2.2208 13.6503 18.8408 19.2604
407 2 2.2208 13.6519 21.6257 16.4715
436 2 2.2208 13.6486 16.0556 16.47
9401 2 2.2208 -0.305339 4.91486 24.8357
9430 2 2.2208 -0.307052 2.12903 22.0456
9405 2 2.2208 -0.308811 -0.656512 24.8345
9215 2 2.2208 -0.30707 2.12929 27.6245
326 2 2.2208 13.6486 16.0571 27.6279
432 2 2.2208 13.6503 18.8421 24.8394
9433 2 2.2208 -0.305329 4.91455 19.2568
595 2 2.2208 13.6453 10.4851 16.4687
333 2 2.2208 13.6453 10.4859 27.6265
570 2 2.2208 13.6436 7.70009 24.8364
371 2 2.2208 13.6436 7.6997 19.2575
701 2 2.2208 5.28505 24.4154 5.31412
702 2 2.2208 5.28868 29.9888 5.31528
703 1 -1.1104 1.10178 25.8103 1.13093
704 1 -1.1104 1.1019 25.8098 3.92005
705 1 -1.1104 1.10028 23.0232 1.13032
706 1 -1.1104 1.10389 28.598 1.13214
707 2 2.2208 5.28674 27.2031 2.5261
708 1 -1.1104 1.10018 23.0228 3.91907
709 1 -1.1104 1.10388 28.5973 3.92046
710 1 -1.1104 3.89118 25.8092 1.13117
711 2 2.2208 2.49574 24.4173 2.52516
712 2 2.2208 2.49961 29.9925 2.52696
713 1 -1.1104 3.89113 25.8086 3.91986
714 2 2.2208 2.49759 27.2033 5.31472
715 1 -1.1104 3.88929 23.0224 1.13011
716 1 -1.1104 3.8926 28.5965 1.13209
717 1 -1.1104 3.88944 23.022 3.91929
718 1 -1.1104 3.89276 28.5957 3.92068
733 1 -1.1104 6.68228 28.5936 3.92067
719 1 -1.1104 6.68227 28.5945 1.13221
732 1 -1.1104 6.68027 25.8076 1.13114
728 1 -1.1104 1.10203 25.8082 6.70882
721 1 -1.1104 1.1035 28.5951 6.70961
883 1 -1.1104 3.89303 28.5933 6.70943
722 1 -1.1104 1.10008 23.0217 6.70851
723 1 -1.1104 3.89093 25.807 6.70901
1369 2 2.2208 13.6536 24.4111 13.6825
989 1 -1.1104 6.58036 48.0215 12.473
910 2 2.2208 8.02091 46.6532 8.02277
726 1 -1.1104 6.67886 23.0209 3.91913
727 1 -1.1104 6.68049 25.8071 3.92
880 1 -1.1104 6.68063 25.8055 6.70889
881 1 -1.1104 6.68194 28.5912 6.70947
731 1 -1.1104 6.67893 23.0213 1.1303
735 2 2.2208 10.8642 24.4138 5.31428
736 2 2.2208 10.8677 29.9855 5.31568
737 1 -1.1104 12.2597 25.8057 1.13105
738 1 -1.1104 12.26 25.8054 3.92034
739 1 -1.1104 12.2582 23.0199 1.13044
740 1 -1.1104 12.2619 28.5917 1.13245
741 2 2.2208 10.8658 27.2005 2.5263
742 1 -1.1104 12.2581 23.0198 3.91915
743 1 -1.1104 12.2619 28.5912 3.92077
744 1 -1.1104 9.47022 25.8064 1.13131
745 2 2.2208 8.07448 24.4152 2.52524
746 2 2.2208 8.07792 29.9884 2.52729
747 1 -1.1104 9.47016 25.8059 3.91994
748 2 2.2208 8.07623 27.2004 5.31483
749 1 -1.1104 9.46827 23.0203 1.13014
750 1 -1.1104 9.47154 28.5926 1.1323
751 1 -1.1104 9.4685 23.0201 3.91941
752 1 -1.1104 9.47189 28.5919 3.92089
849 2 2.2208 13.6557 27.1996 5.31505
756 1 -1.1104 12.2617 28.5894 6.71015
754 1 -1.1104 12.26 25.8042 6.70905
758 1 -1.1104 12.2581 23.0189 6.70874
753 1 -1.1104 9.46854 23.019 6.7083
757 1 -1.1104 9.47008 25.8044 6.70921
734 2 2.2208 13.6575 29.9864 2.52731
959 1 -1.1104 12.2752 42.498 6.70554
760 2 2.2208 5.29341 35.5658 5.31611
761 1 -1.1104 1.10561 31.3865 1.13281
762 1 -1.1104 1.11059 36.9672 1.1344
763 1 -1.1104 1.10572 31.3856 3.92142
764 1 -1.1104 1.11063 36.9658 3.92226
765 1 -1.1104 1.10826 34.1763 1.13415
766 2 2.2208 5.29072 32.7792 2.52823
767 2 2.2208 5.2963 38.3611 2.52959
768 1 -1.1104 1.1085 34.1748 3.92149
769 1 -1.1104 3.8948 31.3848 1.13321
770 1 -1.1104 3.89915 36.9649 1.13514
771 2 2.2208 2.50496 35.5719 2.5288
772 1 -1.1104 3.89488 31.3835 3.92132
773 1 -1.1104 3.8995 36.9622 3.92192
774 2 2.2208 2.50219 32.7791 5.3157
775 2 2.2208 2.5095 38.3603 5.31546
776 1 -1.1104 3.89649 34.1738 1.13428
777 1 -1.1104 3.89657 34.1723 3.92194
780 1 -1.1104 6.6877 36.9605 1.13557
786 1 -1.1104 3.89425 31.3801 6.70988
792 1 -1.1104 6.6836 31.3819 1.13352
936 1 -1.1104 1.11242 36.96 6.7094
779 1 -1.1104 6.68728 36.9572 3.92182
784 1 -1.1104 3.89735 34.1677 6.71014
787 1 -1.1104 6.68432 31.377 6.70979
778 1 -1.1104 3.89846 36.9563 6.71002
782 1 -1.1104 1.10623 31.3825 6.70968
783 1 -1.1104 1.10783 34.1709 6.71037
789 1 -1.1104 6.68622 34.1683 3.92197
1384 2 2.2208 2.5008 41.1254 13.6806
781 1 -1.1104 6.68596 34.1707 1.13454
790 1 -1.1104 6.68387 31.3806 3.92128
793 2 2.2208 10.8713 35.559 5.31615