ITEM: TIMESTEP
267
ITEM: NUMBER OF ATOMS
17648
ITEM: BOX BOUNDS pp pp pp
-2.7717828229332220e-01 2.7617178282293317e+01
-3.4472205766305355e+00 3.3152722057663055e+02
-2.7717827830221448e-01 2.7617178278302212e+01
ITEM: ATOMS id type q x y z
1 2 2.2208 5.29703 2.13862 5.30252
2 1 -1.1104 1.10861 -2.05054 1.11802
3 1 -1.1104 1.11415 3.53284 1.11799
6 1 -1.1104 1.10864 -2.05045 3.90807
7 1 -1.1104 1.11417 3.53297 3.90804
10 1 -1.1104 1.11139 0.741184 1.1186
12 2 2.2208 5.29424 -0.653147 2.51302
13 2 2.2208 5.29978 4.9302 2.51312
14 1 -1.1104 1.11138 0.741246 3.90745
16 1 -1.1104 3.89811 -2.05051 1.11862
17 1 -1.1104 3.90365 3.53285 1.11869
18 2 2.2208 2.50752 2.13854 2.51307
19 1 -1.1104 3.89812 -2.05043 3.90746
20 1 -1.1104 3.90363 3.5329 3.90753
21 2 2.2208 2.50479 -0.653043 5.30247
22 2 2.2208 2.51031 4.93032 5.30254
23 1 -1.1104 3.90086 0.741173 1.11805
24 1 -1.1104 3.90089 0.741256 3.9081
5 1 -1.1104 6.6931 3.53284 1.11809
15 1 -1.1104 6.69036 0.741247 3.90748
25 1 -1.1104 1.10864 -2.0503 6.6969
31 1 -1.1104 3.89811 -2.05033 6.69752
32 1 -1.1104 3.90372 3.53304 6.69758
26 1 -1.1104 1.11419 3.53309 6.69691
29 1 -1.1104 1.11145 0.741424 6.69749
11 1 -1.1104 6.69037 0.741172 1.11861
27 1 -1.1104 6.68758 -2.05032 6.69687
9 1 -1.1104 6.69315 3.53292 3.90815
33 1 -1.1104 3.9009 0.741353 6.69697
30 1 -1.1104 6.69043 0.741349 6.69754
28 1 -1.1104 6.69316 3.53302 6.69701
8453 2 2.2208 13.6597 -3.44484 13.6706
8461 2 2.2208 13.6598 -3.44482 8.09177
8 1 -1.1104 6.68764 -2.05042 3.90803
4 1 -1.1104 6.68759 -2.05049 1.11795
34 2 2.2208 10.876 2.13867 5.30246
35 1 -1.1104 12.2665 -2.05049 1.11783
36 1 -1.1104 12.272 3.53293 1.11791
37 1 -1.1104 12.2665 -2.05044 3.90791
38 1 -1.1104 12.272 3.53302 3.90801
39 1 -1.1104 12.2693 0.741225 1.11846
40 2 2.2208 10.8732 -0.65311 2.51292
41 2 2.2208 10.8787 4.93027 2.51305
42 1 -1.1104 12.2693 0.741304 3.90736
43 1 -1.1104 9.47708 -2.05048 1.11847
44 1 -1.1104 9.48258 3.53289 1.11862
45 2 2.2208 8.08647 2.13856 2.51305
46 1 -1.1104 9.47707 -2.05038 3.90737
47 1 -1.1104 9.48258 3.53298 3.9075
48 2 2.2208 8.08374 -0.653044 5.30245
49 2 2.2208 8.08927 4.93032 5.30261
50 1 -1.1104 9.4798 0.741237 1.11796
51 1 -1.1104 9.47985 0.741283 3.90804
55 1 -1.1104 9.47707 -2.05035 6.69742
333 2 2.2208 13.6653 2.13861 2.51287
52 1 -1.1104 12.2665 -2.05039 6.69678
56 1 -1.1104 9.48266 3.53307 6.69759
229 2 2.2208 10.8731 -0.653024 13.6707
53 1 -1.1104 12.272 3.53314 6.69689
54 1 -1.1104 12.2693 0.741366 6.69743
334 2 2.2208 13.6626 -0.653065 5.30234
8452 2 2.2208 5.29141 -3.44469 10.8813
8451 2 2.2208 13.6598 -3.44487 2.51284
61 2 2.2208 5.30254 7.72193 5.30264
62 2 2.2208 5.30801 13.3051 5.30262
63 1 -1.1104 1.11969 9.11615 1.11805
65 1 -1.1104 1.11968 9.11626 3.9081
67 1 -1.1104 1.11694 6.32454 1.11862
68 1 -1.1104 1.12243 11.9077 1.11856
73 2 2.2208 5.30527 10.5134 2.51317
74 1 -1.1104 1.11693 6.32461 3.90747
75 1 -1.1104 1.12241 11.9078 3.90752
78 1 -1.1104 3.90916 9.11612 1.11872
79 2 2.2208 2.51305 7.72186 2.5131
80 2 2.2208 2.51853 13.305 2.51308
81 1 -1.1104 3.90915 9.11614 3.90761
82 2 2.2208 2.5158 10.5136 5.30256
83 1 -1.1104 3.90641 6.3245 1.11813
84 1 -1.1104 3.91192 11.9076 1.11808
86 1 -1.1104 3.90644 6.32456 3.90818
87 1 -1.1104 3.91191 11.9077 3.90816
92 1 -1.1104 3.90918 9.11632 6.69766
69 1 -1.1104 1.12239 11.908 6.69754
77 1 -1.1104 6.70138 11.9077 3.90765
70 1 -1.1104 6.69589 6.32449 1.11874
85 1 -1.1104 3.91184 11.9079 6.69708
90 1 -1.1104 1.11696 6.32478 6.69752
76 1 -1.1104 6.69588 6.32456 3.90763
64 1 -1.1104 6.69864 9.11609 1.11816
71 1 -1.1104 6.70138 11.9076 1.11871
72 1 -1.1104 6.70139 11.9079 6.69774
66 1 -1.1104 6.69865 9.11617 3.90824
91 1 -1.1104 6.69593 6.32467 6.69769
94 2 2.2208 10.8815 7.72208 5.30264
95 2 2.2208 10.8869 13.3054 5.30276
96 1 -1.1104 12.2775 9.11625 1.11811
97 1 -1.1104 12.2776 9.11637 3.90825
98 1 -1.1104 12.2748 6.3246 1.1186
99 1 -1.1104 12.2803 11.9078 1.11877
101 2 2.2208 10.8842 10.5135 2.51321
102 1 -1.1104 12.2748 6.32472 3.90749
103 1 -1.1104 12.2803 11.908 3.90772
104 1 -1.1104 9.48812 9.11615 1.11877
105 2 2.2208 8.09201 7.72187 2.51318
106 2 2.2208 8.09751 13.305 2.51317
107 1 -1.1104 9.48808 9.11625 3.90766
108 2 2.2208 8.09474 10.5136 5.30271
109 1 -1.1104 9.48534 6.32455 1.11811
110 1 -1.1104 9.49087 11.9077 1.11815
112 1 -1.1104 9.4854 6.32462 3.90821
113 1 -1.1104 9.49088 11.9078 3.90831
116 1 -1.1104 12.2749 6.32486 6.6976
117 1 -1.1104 9.48813 9.11645 6.69774
115 1 -1.1104 12.2775 9.11662 6.69712
114 2 2.2208 13.6709 7.72202 2.51307
111 1 -1.1104 9.49079 11.9081 6.69722
8987 2 2.2208 -0.265691 18.8884 5.30278
100 1 -1.1104 12.2803 11.9083 6.69786
89 1 -1.1104 6.69863 9.1163 6.69713
121 2 2.2208 5.31337 18.8879 5.30274
122 1 -1.1104 1.1251 14.6992 1.11803
124 1 -1.1104 1.13021 20.2819 1.11822
127 1 -1.1104 1.12515 14.6994 3.90807
128 1 -1.1104 1.13039 20.2821 3.90832
130 1 -1.1104 1.12769 17.4906 1.1186
133 2 2.2208 5.31068 16.0963 2.5131
134 2 2.2208 5.31598 21.6788 2.5134
135 1 -1.1104 1.12771 17.4908 3.90765
137 1 -1.1104 3.91459 14.6991 1.11856
139 1 -1.1104 3.91979 20.2816 1.1187
141 2 2.2208 2.5238 18.8878 2.51321
142 1 -1.1104 3.91462 14.6991 3.90756
143 1 -1.1104 3.91982 20.2817 3.90778
144 2 2.2208 2.52121 16.0967 5.3026
145 2 2.2208 2.5265 21.6793 5.30294
146 1 -1.1104 3.91717 17.4904 1.11804
148 1 -1.1104 3.91732 17.4905 3.90815
131 1 -1.1104 1.12778 17.4911 6.69767
123 1 -1.1104 1.12503 14.6996 6.69701
138 1 -1.1104 3.91462 14.6994 6.69764
149 1 -1.1104 6.70927 20.2815 1.11814
132 1 -1.1104 6.70687 17.4909 6.69774
140 1 -1.1104 3.91997 20.2822 6.69787
147 1 -1.1104 3.91722 17.4909 6.69712
306 1 -1.1104 1.13023 20.2825 6.69738
129 1 -1.1104 6.70414 14.6992 3.90818
151 1 -1.1104 6.70672 17.4903 1.1186
125 1 -1.1104 6.70409 14.699 1.11803
150 1 -1.1104 6.7095 20.2817 3.90839
8458 2 2.2208 2.50198 -3.44466 8.09193
136 1 -1.1104 6.70674 17.4905 3.90761
285 1 -1.1104 6.70939 20.2822 6.69733
153 2 2.2208 10.8923 18.8885 5.30289
154 1 -1.1104 12.283 14.6993 1.11814
156 1 -1.1104 12.2882 20.282 1.1182
157 1 -1.1104 12.2831 14.6995 3.90836
158 1 -1.1104 12.2885 20.2824 3.90858
159 1 -1.1104 12.2857 17.4908 1.11876
161 2 2.2208 10.8896 16.0966 2.51322
162 2 2.2208 10.895 21.6792 2.5135
163 1 -1.1104 12.2857 17.491 3.90775
164 1 -1.1104 9.49361 14.6991 1.11869
166 1 -1.1104 9.49886 20.2817 1.11881
167 2 2.2208 8.10281 18.8877 2.51323
168 1 -1.1104 9.49357 14.6993 3.90765
169 1 -1.1104 9.49886 20.2819 3.90783
170 2 2.2208 8.10019 16.0967 5.30269
171 2 2.2208 8.1056 21.6794 5.30304
172 1 -1.1104 9.49621 17.4905 1.11806
174 1 -1.1104 9.49633 17.4907 3.90832
327 1 -1.1104 9.49914 20.2827 6.6981
160 1 -1.1104 12.2858 17.4917 6.69797
165 1 -1.1104 9.49361 14.6997 6.69785
8454 2 2.2208 8.08089 -3.44473 8.09184
326 1 -1.1104 12.2883 20.2834 6.69747
8455 2 2.2208 10.8704 -3.44478 5.30234
173 1 -1.1104 9.49623 17.4912 6.6972
8459 2 2.2208 10.8703 -3.4448 10.8812
319 2 2.2208 10.8896 16.0975 8.09228
337 2 2.2208 13.6625 -0.652998 10.8812
177 2 2.2208 5.29703 2.1388 10.8815
178 1 -1.1104 1.10866 -2.05025 12.2758
179 1 -1.1104 1.1142 3.53323 12.2758
182 1 -1.1104 1.10863 -2.05025 9.48695
183 1 -1.1104 1.11422 3.53321 9.48695
186 1 -1.1104 1.11145 0.741512 12.2764
188 2 2.2208 5.29425 -0.652971 8.09193
189 2 2.2208 5.29981 4.93041 8.09204
190 1 -1.1104 1.11145 0.741477 9.48634
192 1 -1.1104 3.8981 -2.05025 12.2764
193 1 -1.1104 3.90367 3.53324 12.2765
194 2 2.2208 2.50757 2.13878 8.09194
195 1 -1.1104 3.8981 -2.05025 9.48636
196 1 -1.1104 3.90368 3.53316 9.48645
197 2 2.2208 2.50479 -0.652915 10.8814
198 2 2.2208 2.51031 4.93056 10.8814
199 1 -1.1104 3.90092 0.741499 12.2758
200 1 -1.1104 3.90093 0.741476 9.48699
181 1 -1.1104 6.69311 3.53317 12.2759
191 1 -1.1104 6.69037 0.741418 9.48641
185 1 -1.1104 6.69317 3.53312 9.48706
9343 2 2.2208 -0.263484 21.6815 13.671
9095 2 2.2208 -0.271109 13.3059 10.8813
9093 2 2.2208 -0.276435 7.72235 10.8813
180 1 -1.1104 6.68756 -2.05033 12.2758
187 1 -1.1104 6.69039 0.741409 12.2764
316 1 -1.1104 12.2886 20.2848 9.4876
320 2 2.2208 10.8951 21.6812 8.0926
57 1 -1.1104 9.47985 0.741367 6.69691
8985 2 2.2208 -0.263076 21.6794 2.51341
335 2 2.2208 13.6654 2.13876 8.09181
184 1 -1.1104 6.68758 -2.05031 9.48692
208 2 2.2208 10.8759 2.13878 10.8814
209 1 -1.1104 12.2664 -2.05041 12.2756
210 1 -1.1104 12.272 3.53331 12.2757
211 1 -1.1104 12.2665 -2.05038 9.48682
212 1 -1.1104 12.2721 3.53321 9.48694
213 1 -1.1104 12.2693 0.741411 12.2763
214 2 2.2208 10.8732 -0.653007 8.09186
215 2 2.2208 10.8787 4.9305 8.092
216 1 -1.1104 12.2693 0.741444 9.48629
217 1 -1.1104 9.47701 -2.05039 12.2763
218 1 -1.1104 9.48259 3.53321 12.2765
219 2 2.2208 8.08652 2.13872 8.09198
220 1 -1.1104 9.47702 -2.05035 9.48628
221 1 -1.1104 9.48258 3.53315 9.48644
222 2 2.2208 8.0837 -0.653004 10.8814
223 2 2.2208 8.08926 4.93053 10.8815
224 1 -1.1104 9.47981 0.741415 12.2758
225 1 -1.1104 9.47983 0.741371 9.48697
8986 2 2.2208 -0.268303 16.0967 2.51312
8930 2 2.2208 -0.273635 10.5136 2.513
58 2 2.2208 13.6681 4.93043 5.30244
226 2 2.2208 13.6681 4.93068 10.8813
336 2 2.2208 13.6653 2.13887 13.6706
313 1 -1.1104 12.2829 14.7012 12.276
93 1 -1.1104 3.90642 6.32468 6.69705
324 2 2.2208 8.1029 18.8887 8.09227
301 1 -1.1104 6.70401 14.7002 12.2759
256 2 2.2208 5.30516 10.5141 13.6709
257 2 2.2208 2.51835 13.3058 13.6708
88 1 -1.1104 1.11964 9.1164 6.69699
231 2 2.2208 5.30253 7.72223 10.8815
232 2 2.2208 5.30792 13.3056 10.8815
233 1 -1.1104 1.11958 9.11673 12.2759
235 1 -1.1104 1.11965 9.11661 9.48699
237 1 -1.1104 1.11693 6.32501 12.2764
238 1 -1.1104 1.12228 11.9085 12.2763
241 2 2.2208 5.30525 10.5137 8.09212
242 1 -1.1104 1.11693 6.3249 9.4864
243 1 -1.1104 1.12228 11.9083 9.48643
246 1 -1.1104 3.9091 9.11666 12.2765
247 2 2.2208 2.51304 7.72212 8.09201
248 2 2.2208 2.51846 13.3054 8.09201
249 1 -1.1104 3.90911 9.11651 9.48654
250 2 2.2208 2.51571 10.514 10.8814
251 1 -1.1104 3.90639 6.32493 12.2759
252 1 -1.1104 3.91176 11.9084 12.2759
253 1 -1.1104 3.90646 6.32485 9.48709
254 1 -1.1104 3.91184 11.9082 9.48709
245 1 -1.1104 6.70128 11.9082 9.48658
234 1 -1.1104 6.69857 9.1167 12.276
255 2 2.2208 2.513 7.72231 13.6709
328 1 -1.1104 9.49895 20.2838 9.48676
118 1 -1.1104 9.48536 6.32477 6.69707
239 1 -1.1104 6.69587 6.32493 12.2766
236 1 -1.1104 6.69864 9.11652 9.48719
8931 2 2.2208 -0.270964 13.3053 5.30249
207 2 2.2208 2.50201 -3.44484 2.51305
240 1 -1.1104 6.70128 11.9085 12.2766
8460 2 2.2208 5.29146 -3.44474 5.30246
281 2 2.2208 8.09736 13.306 13.6709
244 1 -1.1104 6.6959 6.32484 9.48654
258 1 -1.1104 9.49084 11.9085 9.4873
259 1 -1.1104 9.48541 6.3249 9.48713
260 1 -1.1104 9.49072 11.9087 12.276
261 1 -1.1104 9.48532 6.32506 12.2759
262 2 2.2208 8.09468 10.5141 10.8816
263 1 -1.1104 9.48806 9.11668 9.48659
264 2 2.2208 8.09745 13.3055 8.0922
265 2 2.2208 8.092 7.72212 8.09213
266 2 2.2208 10.8814 7.72243 10.8815
267 2 2.2208 10.8869 13.3062 10.8816
268 1 -1.1104 12.2775 9.11712 12.2759
269 1 -1.1104 12.2776 9.11688 9.48716
270 1 -1.1104 12.2748 6.32516 12.2764
271 1 -1.1104 12.2802 11.9091 12.2766
272 2 2.2208 10.8842 10.514 8.0922
273 1 -1.1104 12.2748 6.32507 9.48642
274 1 -1.1104 12.2802 11.9088 9.48667
275 1 -1.1104 9.48807 9.11687 12.2766
280 2 2.2208 10.8841 10.5144 13.671
8457 2 2.2208 8.08097 -3.4448 2.51294
322 1 -1.1104 9.49355 14.7007 12.2767
126 1 -1.1104 6.70405 14.6994 6.69711
338 2 2.2208 2.52366 18.8893 13.6709
311 2 2.2208 5.3106 16.0976 13.6708
293 1 -1.1104 6.70673 17.4915 9.48656
286 1 -1.1104 1.12759 17.492 12.2764
287 2 2.2208 2.52109 16.0973 10.8815
288 2 2.2208 2.52636 21.6806 10.8817
289 1 -1.1104 3.91715 17.4918 12.2759
290 1 -1.1104 3.91987 20.2834 12.2766
291 1 -1.1104 3.91449 14.7001 12.2765
295 1 -1.1104 1.13029 20.2831 9.48727
296 1 -1.1104 1.12757 17.4916 9.4866
297 2 2.2208 5.31609 21.6798 8.09242
298 1 -1.1104 1.12503 14.6999 9.48698
299 2 2.2208 5.31067 16.0969 8.0921
302 1 -1.1104 1.13005 20.2837 12.2761
303 1 -1.1104 1.12488 14.7002 12.2758
304 2 2.2208 5.31335 18.889 10.8816
305 1 -1.1104 3.91978 20.2828 9.48674
307 2 2.2208 2.5238 18.8885 8.0922
308 1 -1.1104 3.91729 17.4914 9.48712
309 1 -1.1104 3.91449 14.6998 9.4865
294 1 -1.1104 6.7041 14.6999 9.48718
575 2 2.2208 5.316 21.681 13.671
201 1 -1.1104 9.49638 17.492 9.48733
314 1 -1.1104 12.2884 20.286 12.276
340 2 2.2208 8.10292 18.8898 13.6709
155 1 -1.1104 12.2829 14.7 6.69725
321 1 -1.1104 12.2856 17.4927 9.4867
315 1 -1.1104 12.283 14.7007 9.48735
318 1 -1.1104 12.2858 17.4935 12.2767
323 1 -1.1104 9.49919 20.2848 12.2768
330 2 2.2208 8.10571 21.6813 10.8818
331 1 -1.1104 9.49632 17.4927 12.2759
312 2 2.2208 10.8924 18.8902 10.8817
325 1 -1.1104 9.49349 14.7002 9.48664
292 1 -1.1104 6.70962 20.283 9.48742
284 1 -1.1104 6.70684 17.492 12.2766
300 1 -1.1104 6.70948 20.2837 12.276
576 2 2.2208 10.8951 21.6831 13.671
310 2 2.2208 10.8896 16.0985 13.6709
329 2 2.2208 8.10019 16.0977 10.8816
9038 2 2.2208 -0.26838 16.0972 8.09204
9099 2 2.2208 -0.273817 10.5142 13.6707
9007 2 2.2208 -0.268537 16.0978 13.6707
9094 2 2.2208 -0.273725 10.5139 8.09192
9037 2 2.2208 -0.265871 18.8894 10.8816
9018 2 2.2208 -0.263181 21.6804 8.09242
554 2 2.2208 2.50474 -0.653208 -0.276398
580 2 2.2208 10.8759 2.13854 -0.276498
578 2 2.2208 8.08924 4.9302 -0.276333
577 2 2.2208 13.6681 4.93026 -0.27655
341 2 2.2208 5.29701 2.13871 16.4603
342 1 -1.1104 1.10859 -2.05043 17.8546
343 1 -1.1104 1.11422 3.5331 17.8547
346 1 -1.1104 1.10859 -2.05031 15.0658
348 1 -1.1104 1.11421 3.53322 15.0658
354 1 -1.1104 1.11141 0.741344 17.8552
356 2 2.2208 5.29418 -0.653136 19.2496
357 2 2.2208 5.29974 4.93041 19.2498
358 1 -1.1104 1.11145 0.741439 15.0652
362 1 -1.1104 3.89806 -2.05047 17.8552
363 1 -1.1104 3.90364 3.53308 17.8553
364 2 2.2208 2.50753 2.13864 19.2497
365 1 -1.1104 3.89808 -2.05032 15.0652
367 1 -1.1104 3.90367 3.53316 15.0653
369 2 2.2208 2.50474 -0.653041 16.4602
370 2 2.2208 2.5103 4.9305 16.4603
371 1 -1.1104 3.90087 0.741296 17.8547
372 1 -1.1104 3.90089 0.741419 15.0659
345 1 -1.1104 6.69309 3.53309 17.8547
347 1 -1.1104 1.10854 -2.05054 20.6446
373 1 -1.1104 3.90084 0.741237 20.6447
352 1 -1.1104 6.69311 3.53317 15.0659
350 1 -1.1104 6.68756 -2.0504 15.0658
366 1 -1.1104 3.89803 -2.0505 20.644
349 1 -1.1104 1.11419 3.53301 20.6447
359 1 -1.1104 1.11138 0.741233 20.6441
368 1 -1.1104 3.90365 3.53301 20.6442
361 1 -1.1104 6.69029 0.741261 20.6441
360 1 -1.1104 6.69033 0.741379 15.0653
355 1 -1.1104 6.69034 0.741287 17.8553
353 1 -1.1104 6.69309 3.53299 20.6447
8800 2 2.2208 5.2914 -3.44483 16.4602
8803 2 2.2208 10.8703 -3.44492 22.0388
8802 2 2.2208 8.08086 -3.44492 19.2495
351 1 -1.1104 6.6875 -2.0505 20.6446
344 1 -1.1104 6.68755 -2.05046 17.8546
376 2 2.2208 10.8759 2.13879 16.4602
377 1 -1.1104 12.2664 -2.05043 17.8544
378 1 -1.1104 12.272 3.53328 17.8545
379 1 -1.1104 12.2664 -2.05041 15.0656
381 1 -1.1104 12.272 3.53331 15.0657
383 1 -1.1104 12.2692 0.741399 17.8551
384 2 2.2208 10.8731 -0.653108 19.2495
385 2 2.2208 10.8786 4.93052 19.2496
386 1 -1.1104 12.2692 0.741464 15.0651
388 1 -1.1104 9.47699 -2.05049 17.8551
389 1 -1.1104 9.48253 3.53314 17.8552
390 2 2.2208 8.08644 2.13866 19.2497
391 1 -1.1104 9.47701 -2.05042 15.0651
393 1 -1.1104 9.48255 3.53323 15.0652
395 2 2.2208 8.08368 -0.653091 16.4602
396 2 2.2208 8.08919 4.93054 16.4603
397 1 -1.1104 9.47978 0.74133 17.8546
398 1 -1.1104 9.47979 0.741365 15.0658
498 2 2.2208 13.6653 2.13878 19.2494
399 1 -1.1104 9.47976 0.741251 20.6446
382 1 -1.1104 12.272 3.5331 20.6445
387 1 -1.1104 12.2692 0.741333 20.6439
380 1 -1.1104 12.2664 -2.0505 20.6444
392 1 -1.1104 9.47697 -2.0505 20.6439
676 2 2.2208 13.6626 -0.653158 27.6177
497 2 2.2208 2.5019 -3.44487 19.2496
8806 2 2.2208 10.8703 -3.44487 16.46
404 2 2.2208 5.30245 7.72227 16.4604
405 2 2.2208 5.30781 13.3058 16.4602
406 1 -1.1104 1.11959 9.11662 17.8546
408 1 -1.1104 1.11957 9.11675 15.0658
412 1 -1.1104 1.11693 6.32489 17.8553
413 1 -1.1104 1.12216 11.9084 17.8551
416 2 2.2208 5.30513 10.5139 19.2497
417 1 -1.1104 1.11693 6.32494 15.0653
419 1 -1.1104 1.12223 11.9085 15.0652
425 1 -1.1104 3.90903 9.11659 17.8553
426 2 2.2208 2.51299 7.72215 19.2497
427 2 2.2208 2.51827 13.3056 19.2495
428 1 -1.1104 3.90906 9.1167 15.0653
430 2 2.2208 2.51564 10.514 16.4602
431 1 -1.1104 3.90639 6.32484 17.8548
432 1 -1.1104 3.91171 11.9083 17.8546
433 1 -1.1104 3.90639 6.32495 15.0659
435 1 -1.1104 3.91169 11.9084 15.0659
436 1 -1.1104 3.91166 11.9081 20.6446
409 1 -1.1104 1.11956 9.11653 20.6446
429 1 -1.1104 3.90909 9.11641 20.6441
421 1 -1.1104 6.69585 6.32497 15.0654
407 1 -1.1104 6.69855 9.11665 17.8548
434 1 -1.1104 3.90637 6.32473 20.6448
410 1 -1.1104 6.69853 9.11674 15.066
415 1 -1.1104 6.70117 11.9084 17.8553
423 1 -1.1104 6.70124 11.9085 15.0653
420 1 -1.1104 1.12223 11.9082 20.6439
418 1 -1.1104 1.11695 6.32476 20.6441
8791 2 2.2208 13.6597 -3.44489 19.2494
414 1 -1.1104 6.69581 6.32487 17.8554
424 1 -1.1104 6.70125 11.9081 20.6441
422 1 -1.1104 6.69584 6.32475 20.6442
411 1 -1.1104 6.69852 9.11647 20.6448
437 2 2.2208 10.8814 7.72249 16.4603
438 2 2.2208 10.8868 13.3063 16.4602
439 1 -1.1104 12.2775 9.11698 17.8546
440 1 -1.1104 12.2774 9.11714 15.0659
442 1 -1.1104 12.2747 6.32508 17.8551
443 1 -1.1104 12.2801 11.9089 17.8552
444 2 2.2208 10.8841 10.5141 19.2496
445 1 -1.1104 12.2747 6.32524 15.0652
447 1 -1.1104 12.2802 11.9091 15.0653
449 1 -1.1104 9.48797 9.11679 17.8553
450 2 2.2208 8.09192 7.72221 19.2497
451 2 2.2208 8.09727 13.3057 19.2496
452 1 -1.1104 9.488 9.11693 15.0653
454 2 2.2208 8.0946 10.5141 16.4603
455 1 -1.1104 9.48529 6.32499 17.8547
456 1 -1.1104 9.49073 11.9086 17.8547
457 1 -1.1104 9.4853 6.32504 15.0659
459 1 -1.1104 9.49071 11.9088 15.066
460 1 -1.1104 9.49065 11.9083 20.6447
453 1 -1.1104 9.48805 9.11655 20.6441
446 1 -1.1104 12.2748 6.3249 20.6439
448 1 -1.1104 12.2802 11.9085 20.644
441 1 -1.1104 12.2774 9.11667 20.6446
458 1 -1.1104 9.48529 6.32479 20.6447
8799 2 2.2208 5.29139 -3.4449 22.039
464 2 2.2208 5.3132 18.8892 16.4601
465 1 -1.1104 1.12484 14.7001 17.8545
466 1 -1.1104 1.12993 20.2835 17.8546
469 1 -1.1104 1.12486 14.7003 15.0657
471 1 -1.1104 1.13 20.2838 15.0658
477 1 -1.1104 1.12734 17.4918 17.855
479 2 2.2208 5.31044 16.0972 19.2495
480 2 2.2208 5.31571 21.6803 19.2495
481 1 -1.1104 1.12747 17.4921 15.0652
485 1 -1.1104 3.91431 14.7 17.8551
486 1 -1.1104 3.91956 20.2832 17.8551
487 2 2.2208 2.52347 18.8888 19.2495
488 1 -1.1104 3.91445 14.7002 15.0652
490 1 -1.1104 3.91975 20.2836 15.0653
492 2 2.2208 2.52095 16.0975 16.4601
493 2 2.2208 2.52612 21.6808 16.4602
494 1 -1.1104 3.91703 17.4917 17.8545
495 1 -1.1104 3.91711 17.4919 15.0658
491 1 -1.1104 3.91957 20.2827 20.6439
470 1 -1.1104 1.12476 14.6999 20.6444
472 1 -1.1104 1.12981 20.2829 20.6444
489 1 -1.1104 3.91437 14.6997 20.6439
467 1 -1.1104 6.70395 14.7001 17.8545
482 1 -1.1104 1.12738 17.4914 20.6439
474 1 -1.1104 6.70379 14.6998 20.6445
496 1 -1.1104 3.91686 17.4912 20.6444
468 1 -1.1104 6.70935 20.2835 17.8544
478 1 -1.1104 6.70656 17.4918 17.8551
473 1 -1.1104 6.70398 14.7003 15.0659
476 1 -1.1104 6.70905 20.2828 20.6444
670 2 2.2208 10.8947 21.6795 24.8284
483 1 -1.1104 6.70675 17.4921 15.0651
484 1 -1.1104 6.70655 17.4913 20.6438
475 1 -1.1104 6.70945 20.2839 15.0659
499 2 2.2208 10.8923 18.8904 16.4601
500 1 -1.1104 12.2829 14.7009 17.8545
501 1 -1.1104 12.2884 20.2854 17.8542
502 1 -1.1104 12.2829 14.7013 15.0659
504 1 -1.1104 12.2884 20.2861 15.0658
506 1 -1.1104 12.2855 17.493 17.855
507 2 2.2208 10.8894 16.0978 19.2494
508 2 2.2208 10.8948 21.6817 19.2493
509 1 -1.1104 12.2857 17.4936 15.0651
511 1 -1.1104 9.49335 14.7005 17.8552
512 1 -1.1104 9.4988 20.2843 17.855
513 2 2.2208 8.10264 18.8892 19.2494
514 1 -1.1104 9.49352 14.7008 15.0652
516 1 -1.1104 9.49907 20.285 15.0651
518 2 2.2208 8.10008 16.0978 16.4602
519 2 2.2208 8.10554 21.6816 16.4601
520 1 -1.1104 9.49622 17.4924 17.8544
521 1 -1.1104 9.49626 17.4928 15.0658
517 1 -1.1104 9.49879 20.2833 20.6437
515 1 -1.1104 9.49341 14.7 20.6439
505 1 -1.1104 12.288 20.284 20.6443
503 1 -1.1104 12.2827 14.7003 20.6445
510 1 -1.1104 12.2855 17.4921 20.6437
522 1 -1.1104 9.49593 17.4917 20.6444
403 2 2.2208 2.50193 -3.44491 24.8285
401 2 2.2208 13.6681 4.93071 16.46
527 2 2.2208 5.29696 2.13858 22.0391
528 1 -1.1104 1.10857 -2.05059 23.4335
529 1 -1.1104 1.11417 3.53291 23.4335
532 1 -1.1104 1.10859 -2.05055 26.2235
533 1 -1.1104 1.11416 3.53287 26.2235
536 1 -1.1104 1.11135 0.741155 23.4341
538 2 2.2208 5.29417 -0.653203 24.8285
540 1 -1.1104 1.11136 0.741136 26.2229
542 1 -1.1104 3.89804 -2.05052 23.4341
543 1 -1.1104 3.90362 3.53292 23.4342
544 2 2.2208 2.5075 2.1385 24.8285
545 1 -1.1104 3.89807 -2.05054 26.2229
546 1 -1.1104 3.90363 3.53285 26.223
547 2 2.2208 2.50471 -0.653188 22.0391
548 2 2.2208 2.51029 4.93031 22.0392
549 1 -1.1104 3.90082 0.741205 23.4335
550 1 -1.1104 3.90084 0.741155 26.2236
539 2 2.2208 5.29976 4.93018 24.8286
541 1 -1.1104 6.6903 0.741158 26.2229
9216 2 2.2208 -0.263433 21.6795 24.8285
555 2 2.2208 5.29699 2.13848 27.618
553 2 2.2208 2.51029 4.93019 27.618
530 1 -1.1104 6.68752 -2.05053 23.4334
8804 2 2.2208 13.6598 -3.4449 24.8283
677 2 2.2208 13.6625 -0.652998 16.46
8805 2 2.2208 10.8704 -3.44487 27.6178
531 1 -1.1104 6.69311 3.5329 23.4336
535 1 -1.1104 6.69311 3.53283 26.2236
534 1 -1.1104 6.68756 -2.05052 26.2234
537 1 -1.1104 6.6903 0.741183 23.4341
579 2 2.2208 8.0837 -0.653186 27.6179
394 1 -1.1104 9.48259 3.53305 20.644
675 2 2.2208 13.6625 -0.653121 22.0388
556 2 2.2208 10.8759 2.13861 22.0389
557 1 -1.1104 12.2664 -2.05052 23.4333
558 1 -1.1104 12.272 3.53299 23.4333
559 1 -1.1104 12.2665 -2.05052 26.2233
560 1 -1.1104 12.272 3.5329 26.2234
561 1 -1.1104 12.2692 0.741218 23.4339
562 2 2.2208 10.8731 -0.653187 24.8283
563 2 2.2208 10.8787 4.93026 24.8284
564 1 -1.1104 12.2692 0.741211 26.2227
565 1 -1.1104 9.47699 -2.05055 23.4339
566 1 -1.1104 9.48257 3.53291 23.4341
567 2 2.2208 8.08644 2.13851 24.8285
568 1 -1.1104 9.47703 -2.0505 26.2228
569 1 -1.1104 9.48256 3.5329 26.2229
570 2 2.2208 8.08365 -0.653176 22.039
571 2 2.2208 8.08921 4.93033 22.0391
572 1 -1.1104 9.47975 0.741218 23.4334
573 1 -1.1104 9.47977 0.741187 26.2234
9454 2 2.2208 -0.270975 13.3051 27.6179
9455 2 2.2208 -0.273702 10.5137 24.8284
660 1 -1.1104 9.49607 17.4906 26.2234
607 2 2.2208 5.30796 13.3049 27.6179
609 2 2.2208 5.30253 7.72182 27.6181
666 1 -1.1104 12.283 14.6994 26.2235
583 2 2.2208 5.30247 7.72199 22.0392
584 2 2.2208 5.3078 13.3053 22.039
585 1 -1.1104 1.11967 9.11632 23.4335
587 1 -1.1104 1.11967 9.11622 26.2235
589 1 -1.1104 1.11693 6.32467 23.4341
590 1 -1.1104 1.12224 11.908 23.4339
593 2 2.2208 5.30522 10.5135 24.8285
594 1 -1.1104 1.11696 6.32454 26.2229
595 1 -1.1104 1.12241 11.9078 26.2229
598 1 -1.1104 3.90908 9.11628 23.4341
599 2 2.2208 2.51304 7.72191 24.8286
600 2 2.2208 2.51839 13.3051 24.8284
601 1 -1.1104 3.90916 9.11612 26.223
602 2 2.2208 2.51567 10.5137 22.039
603 1 -1.1104 3.90642 6.3246 23.4336
604 1 -1.1104 3.91179 11.9079 23.4335
605 1 -1.1104 3.90642 6.32452 26.2236
606 1 -1.1104 3.91185 11.9077 26.2235
588 1 -1.1104 6.69862 9.11613 26.2236
592 1 -1.1104 6.70124 11.9079 23.4341
526 1 -1.1104 9.49869 20.2818 26.2228
608 2 2.2208 2.5158 10.5135 27.618
8807 2 2.2208 5.29149 -3.44486 27.6179
632 2 2.2208 8.09475 10.5134 27.618
596 1 -1.1104 6.69591 6.32449 26.223
597 1 -1.1104 6.70138 11.9077 26.223
586 1 -1.1104 6.69861 9.11624 23.4336
591 1 -1.1104 6.69585 6.32457 23.4342
612 1 -1.1104 9.48804 9.11631 23.4341
613 1 -1.1104 12.2803 11.9079 26.223
614 1 -1.1104 12.2748 6.3246 26.2228
615 2 2.2208 10.8842 10.5136 24.8285
617 1 -1.1104 12.2802 11.9081 23.4341
618 1 -1.1104 12.2748 6.32468 23.434
619 1 -1.1104 12.2776 9.11625 26.2236
620 1 -1.1104 12.2775 9.11639 23.4335
621 1 -1.1104 9.49082 11.9077 26.2236
622 1 -1.1104 9.48536 6.32453 26.2236
623 1 -1.1104 9.49079 11.908 23.4335
624 1 -1.1104 9.48534 6.32464 23.4335
625 2 2.2208 8.09466 10.5137 22.0391
626 1 -1.1104 9.48811 9.11617 26.223
627 2 2.2208 8.09739 13.3051 24.8285
628 2 2.2208 8.09198 7.72189 24.8286
629 2 2.2208 10.8814 7.72211 22.0391
630 2 2.2208 10.8868 13.3055 22.039
633 2 2.2208 10.8815 7.7219 27.618
631 2 2.2208 10.8869 13.3051 27.618
8801 2 2.2208 8.08092 -3.4449 24.8284
9456 2 2.2208 -0.271183 13.3055 22.0389
375 2 2.2208 8.09993 16.0969 22.0389
658 2 2.2208 2.52109 16.0964 27.6179
638 1 -1.1104 6.70643 17.4908 23.4338
659 1 -1.1104 6.70913 20.2816 26.2234
635 2 2.2208 2.52602 21.6796 22.039
636 1 -1.1104 3.91698 17.4908 23.4333
637 1 -1.1104 1.12735 17.491 23.4339
639 1 -1.1104 3.91452 14.6991 26.2228
640 1 -1.1104 3.91703 17.4905 26.2234
641 2 2.2208 2.52352 18.8879 24.8284
642 1 -1.1104 3.91961 20.2817 26.2229
643 2 2.2208 5.31301 18.8883 22.0389
644 1 -1.1104 1.1249 14.6995 23.4334
645 1 -1.1104 1.12995 20.2824 23.4334
647 2 2.2208 5.31048 16.0965 24.8284
648 2 2.2208 5.31569 21.679 24.8285
650 1 -1.1104 1.12499 14.6993 26.2234
651 1 -1.1104 1.12755 17.4907 26.2229
652 1 -1.1104 1.13005 20.282 26.2235
654 1 -1.1104 3.91434 14.6994 23.4339
656 1 -1.1104 3.91944 20.2821 23.4339
657 2 2.2208 2.52088 16.0969 22.0389
655 1 -1.1104 6.70399 14.6991 26.2234
649 1 -1.1104 6.70912 20.2821 23.4333
59 2 2.2208 2.5263 21.6789 27.6181
678 2 2.2208 5.31319 18.8876 27.6179
374 2 2.2208 8.10522 21.6798 22.0389
671 1 -1.1104 12.2856 17.4908 26.2228
679 2 2.2208 10.8922 18.8879 27.618
400 2 2.2208 8.10012 16.0964 27.6179
581 2 2.2208 13.6681 4.93042 22.0388
672 1 -1.1104 9.49337 14.6995 23.4339
673 1 -1.1104 9.49854 20.2824 23.4338
669 2 2.2208 10.8895 16.0967 24.8284
664 1 -1.1104 12.2829 14.6997 23.4333
665 1 -1.1104 12.2881 20.2828 23.4331
582 2 2.2208 8.10259 18.8879 24.8284
667 1 -1.1104 12.2881 20.2822 26.2234
663 2 2.2208 10.892 18.8888 22.0388
668 1 -1.1104 12.2854 17.4913 23.4338
646 1 -1.1104 6.70395 14.6994 23.4333
227 2 2.2208 8.10534 21.6788 27.6181
653 1 -1.1104 6.70661 17.4904 26.2228
525 1 -1.1104 9.49355 14.6992 26.2229
661 1 -1.1104 9.49607 17.491 23.4332
674 2 2.2208 13.6653 2.13857 24.8283
9483 2 2.2208 -0.266126 18.8886 22.0389
9507 2 2.2208 -0.265826 18.888 27.618
9452 2 2.2208 -0.276417 7.72211 22.039
9279 2 2.2208 -0.276455 7.72232 16.4602
9281 2 2.2208 -0.271212 13.3059 16.4601
9340 2 2.2208 -0.266073 18.8895 16.4601
9342 2 2.2208 -0.263657 21.6807 19.2495
9484 2 2.2208 -0.268516 16.0968 24.8284
9341 2 2.2208 -0.268653 16.0975 19.2494
9280 2 2.2208 -0.273834 10.514 19.2495
206 2 2.2208 2.50195 -3.4447 13.6708
205 2 2.2208 5.29977 4.93054 13.6709
204 2 2.2208 2.50756 2.13881 13.6708
203 2 2.2208 5.29423 -0.652985 13.6708
230 2 2.2208 10.8787 4.93065 13.6708
8456 2 2.2208 8.08087 -3.44481 13.6707
228 2 2.2208 8.08647 2.13877 13.6709
279 2 2.2208 8.09193 7.72236 13.671
680 2 2.2208 5.31891 24.4702 5.30324
681 2 2.2208 5.32534 30.0518 5.30392
682 1 -1.1104 1.13568 25.8639 1.11853
683 1 -1.1104 1.13587 25.8642 3.90872
684 1 -1.1104 1.13294 23.073 1.11887
685 1 -1.1104 1.13877 28.6548 1.11929
686 2 2.2208 5.32185 27.2606 2.51405
687 1 -1.1104 1.13293 23.0733 3.90802
688 1 -1.1104 1.13869 28.6549 3.90843
689 1 -1.1104 3.92533 25.8635 1.11917
690 2 2.2208 2.52926 24.47 2.51361
691 2 2.2208 2.53563 30.0517 2.51423
692 1 -1.1104 3.92534 25.8636 3.90823
693 2 2.2208 2.53228 27.2614 5.30344
694 1 -1.1104 3.92243 23.0726 1.11834
695 1 -1.1104 3.92825 28.6541 1.11889
696 1 -1.1104 3.92265 23.0728 3.90856
697 1 -1.1104 3.92856 28.6543 3.90919
700 1 -1.1104 6.71204 23.0725 1.11899
701 1 -1.1104 6.71795 28.654 1.11973
703 1 -1.1104 6.71804 28.6539 3.90866
698 1 -1.1104 6.71482 25.8633 1.11862
866 1 -1.1104 3.92245 23.0733 6.69757
867 1 -1.1104 3.92829 28.6548 6.69815
865 1 -1.1104 3.92554 25.8642 6.69844
861 1 -1.1104 1.13302 23.0738 6.69806
859 1 -1.1104 1.13555 25.8649 6.69785
702 1 -1.1104 6.71207 23.0727 3.90802
864 1 -1.1104 6.71853 28.6549 6.69915
9799 2 2.2208 -0.237926 38.422 8.09238
699 1 -1.1104 6.71519 25.8635 3.90901
863 1 -1.1104 6.71236 23.0734 6.69828
707 2 2.2208 10.898 24.4713 5.30353
708 2 2.2208 10.9042 30.0538 5.30475
709 1 -1.1104 12.2938 25.8641 1.11867
710 1 -1.1104 12.2943 25.8648 3.9094
711 1 -1.1104 12.291 23.0732 1.11908
712 1 -1.1104 12.2969 28.6548 1.11984
713 2 2.2208 10.9007 27.2614 2.51432
714 1 -1.1104 12.291 23.0737 3.90815
715 1 -1.1104 12.297 28.6555 3.90912
716 1 -1.1104 9.50448 25.8636 1.11939
717 2 2.2208 8.10834 24.4699 2.51376
718 2 2.2208 8.11454 30.0516 2.5148
719 1 -1.1104 9.50454 25.8639 3.90843
720 2 2.2208 8.11158 27.2616 5.30379
721 1 -1.1104 9.50147 23.0727 1.11838
722 1 -1.1104 9.50729 28.6542 1.11907
723 1 -1.1104 9.50184 23.0731 3.90883
724 1 -1.1104 9.50799 28.6547 3.90977
898 1 -1.1104 9.5078 28.6559 6.6986
893 1 -1.1104 12.294 25.8666 6.69834
897 1 -1.1104 9.50168 23.074 6.69768
895 1 -1.1104 12.2979 28.6581 6.70009
896 1 -1.1104 9.50508 25.8652 6.69901
894 1 -1.1104 12.2915 23.0751 6.69862
9675 2 2.2208 -0.226316 41.2099 5.30059
9673 2 2.2208 -0.221929 44.0044 2.50941
732 2 2.2208 5.33405 35.6336 5.3048
733 1 -1.1104 1.14198 31.4453 1.11884
734 1 -1.1104 1.15014 37.0264 1.1187
736 1 -1.1104 1.14222 31.4454 3.90929
737 1 -1.1104 1.15071 37.026 3.9099
739 1 -1.1104 1.14575 34.2362 1.1199
740 2 2.2208 5.32891 32.8424 2.51518
741 2 2.2208 5.33892 38.4265 2.51648
742 1 -1.1104 1.14596 34.2356 3.9085
744 1 -1.1104 3.93163 31.4449 1.11999
745 1 -1.1104 3.93924 37.0271 1.12113
746 2 2.2208 2.54446 35.6334 2.51497
747 1 -1.1104 3.93176 31.4446 3.9088
748 1 -1.1104 3.94008 37.0251 3.90885
749 2 2.2208 2.53968 32.8426 5.30395
750 2 2.2208 2.55255 38.4236 5.30393
751 1 -1.1104 3.93513 34.2354 1.11956
752 1 -1.1104 3.93564 34.235 3.91009
754 1 -1.1104 6.72164 31.4444 3.90991
755 1 -1.1104 6.72464 34.2356 1.12108
762 1 -1.1104 3.93546 34.2348 6.69866
735 1 -1.1104 6.72827 37.0265 1.12058
738 1 -1.1104 6.72897 37.0248 3.9111
743 1 -1.1104 6.72506 34.2343 3.90945
753 1 -1.1104 6.72096 31.4445 1.11954
756 1 -1.1104 1.1507 37.0254 6.69811
761 1 -1.1104 3.9405 37.0244 6.70041
758 1 -1.1104 1.14582 34.2361 6.69937
760 1 -1.1104 3.93187 31.445 6.69925
920 1 -1.1104 1.14165 31.4463 6.69833
757 1 -1.1104 6.72953 37.023 6.69926
921 1 -1.1104 6.72148 31.4448 6.69859
1002 2 2.2208 -0.224784 41.2133 10.8812
759 1 -1.1104 6.72563 34.2344 6.70017