ITEM: TIMESTEP
297
ITEM: NUMBER OF ATOMS
17724
ITEM: BOX BOUNDS pp pp pp
-2.7717828229332220e-01 2.7617178282293317e+01
-3.4472205766305355e+00 3.3152722057663055e+02
-2.7717827830221448e-01 2.7617178278302212e+01
ITEM: ATOMS id type q x y z
1 2 2.2208 5.2724 2.13704 5.32048
2 1 -1.1104 1.08522 -2.04862 1.13576
3 1 -1.1104 1.08909 3.53008 1.13607
4 1 -1.1104 1.08527 -2.04864 3.92568
5 1 -1.1104 1.08914 3.53014 3.92592
6 1 -1.1104 1.08719 0.740729 1.13634
7 2 2.2208 5.27045 -0.652323 2.53091
8 1 -1.1104 1.08718 0.740712 3.92539
9 1 -1.1104 3.87474 -2.04853 1.13627
10 1 -1.1104 3.8786 3.53017 1.13653
11 2 2.2208 2.4829 2.13696 2.53098
12 1 -1.1104 3.87474 -2.04861 3.92533
13 1 -1.1104 3.87859 3.53013 3.92556
14 2 2.2208 2.48099 -0.652434 5.32032
15 2 2.2208 2.48484 4.92638 5.32054
16 1 -1.1104 3.87665 0.740795 1.13599
17 1 -1.1104 3.87669 0.740761 3.92591
18 2 2.2208 5.27426 4.92643 2.53113
9175 2 2.2208 -0.306543 2.13696 5.32034
9031 2 2.2208 -0.308527 -0.652448 2.53077
23 1 -1.1104 1.08914 3.53013 6.71493
180 1 -1.1104 1.08725 0.740715 6.71527
34 1 -1.1104 6.6681 3.53026 3.92601
9113 2 2.2208 -0.299183 13.2948 10.9001
8968 2 2.2208 -0.302778 7.71592 10.8994
25 1 -1.1104 3.87864 3.53018 6.71544
22 1 -1.1104 1.08528 -2.04873 6.71473
9125 2 2.2208 -0.299159 13.2948 5.32127
30 1 -1.1104 6.66614 0.740857 3.92551
31 1 -1.1104 6.66419 -2.04851 1.13593
24 1 -1.1104 6.66803 3.53027 1.13612
53 1 -1.1104 6.66425 -2.04858 6.71482
32 1 -1.1104 6.66423 -2.04854 3.92578
33 1 -1.1104 6.66615 0.740889 1.13648
35 2 2.2208 10.8513 2.13712 5.32046
36 1 -1.1104 12.243 -2.04859 1.13585
37 1 -1.1104 12.2469 3.53035 1.13612
38 1 -1.1104 12.2431 -2.04862 3.92571
39 1 -1.1104 12.247 3.53035 3.92598
40 1 -1.1104 12.245 0.740884 1.13639
41 2 2.2208 10.8493 -0.652294 2.53089
42 1 -1.1104 12.245 0.740892 3.92543
43 1 -1.1104 9.45366 -2.04852 1.13633
44 1 -1.1104 9.4575 3.53037 1.13657
45 2 2.2208 8.06183 2.13714 2.53104
46 1 -1.1104 9.45366 -2.04856 3.92538
47 1 -1.1104 9.45753 3.53032 3.92558
48 2 2.2208 8.05992 -0.652319 5.32037
49 1 -1.1104 9.45556 0.740935 1.13606
50 1 -1.1104 9.4556 0.740878 3.92593
51 2 2.2208 8.06377 4.92653 5.32057
52 2 2.2208 10.8532 4.92662 2.53112
58 1 -1.1104 6.66617 0.740824 6.71539
59 1 -1.1104 12.2431 -2.04868 6.71477
56 1 -1.1104 9.45373 -2.04859 6.71522
55 1 -1.1104 6.66808 3.53024 6.71504
60 1 -1.1104 9.45754 3.53027 6.71544
215 1 -1.1104 12.2451 0.740814 6.71528
320 1 -1.1104 9.46497 14.6879 9.50516
63 2 2.2208 5.27616 7.71583 5.32072
64 2 2.2208 5.27977 13.2945 5.32117
65 1 -1.1104 1.0928 9.10887 1.13641
66 1 -1.1104 1.09291 9.109 3.92622
67 1 -1.1104 1.091 6.3195 1.13662
68 1 -1.1104 1.09466 11.8983 1.13709
69 2 2.2208 5.27793 10.5052 2.53147
70 1 -1.1104 1.091 6.31954 3.92566
71 1 -1.1104 1.0946 11.8984 3.92614
72 1 -1.1104 3.88229 9.10891 1.13687
73 2 2.2208 2.48667 7.71576 2.53126
74 2 2.2208 2.49026 13.2946 2.53181
75 1 -1.1104 3.8823 9.1089 3.9259
76 2 2.2208 2.48851 10.5052 5.32089
77 1 -1.1104 3.88042 6.31952 1.13627
78 1 -1.1104 3.88402 11.8983 1.13669
79 1 -1.1104 3.8805 6.31953 3.92614
80 1 -1.1104 3.88414 11.8983 3.92649
92 1 -1.1104 6.66991 6.31965 1.13669
89 1 -1.1104 6.66994 6.31962 3.92571
9149 2 2.2208 -0.300958 10.5052 2.53144
87 1 -1.1104 6.67357 11.8983 1.13706
91 1 -1.1104 6.67 6.31963 6.71557
243 1 -1.1104 1.09108 6.31961 6.71547
115 1 -1.1104 6.67367 11.8983 6.71591
9122 2 2.2208 -0.302745 7.71586 5.3206
9530 2 2.2208 -0.300994 10.5054 13.6891
93 1 -1.1104 6.67357 11.8983 3.92607
94 1 -1.1104 6.67171 9.10898 1.13644
88 1 -1.1104 6.67182 9.10898 3.9263
95 2 2.2208 10.8551 7.71599 5.32068
96 2 2.2208 10.8588 13.2947 5.3211
97 1 -1.1104 12.2506 9.10918 1.13637
98 1 -1.1104 12.2508 9.10922 3.92622
99 1 -1.1104 12.2488 6.3198 1.13666
100 1 -1.1104 12.2526 11.8985 1.13697
101 2 2.2208 10.8569 10.5054 2.5314
102 1 -1.1104 12.2489 6.31981 3.92569
103 1 -1.1104 12.2526 11.8986 3.92599
104 1 -1.1104 9.46121 9.10911 1.13683
105 2 2.2208 8.06558 7.71592 2.53127
106 2 2.2208 8.06925 13.2946 2.5317
107 1 -1.1104 9.46127 9.1091 3.92585
108 2 2.2208 8.06747 10.5053 5.32088
109 1 -1.1104 9.45934 6.31975 1.13626
110 1 -1.1104 9.46301 11.8984 1.13658
111 1 -1.1104 9.45945 6.31973 3.92611
112 1 -1.1104 9.46313 11.8984 3.92646
119 1 -1.1104 12.2489 6.31975 6.71555
9065 2 2.2208 -0.306515 2.13702 10.8992
114 1 -1.1104 12.2508 9.10918 6.71524
116 1 -1.1104 6.67181 9.109 6.71532
120 1 -1.1104 12.2527 11.8986 6.71585
113 1 -1.1104 9.46134 9.10907 6.7157
118 1 -1.1104 9.46312 11.8984 6.71547
117 1 -1.1104 9.45944 6.31969 6.71513
679 2 2.2208 8.06554 7.71584 13.689
9123 2 2.2208 -0.29736 16.0842 2.53232
9144 2 2.2208 -0.304663 4.92637 2.53101
9557 2 2.2208 -0.297508 16.0843 13.6899
124 2 2.2208 5.28337 18.8731 5.322
125 1 -1.1104 1.09638 14.6877 1.13717
126 1 -1.1104 1.10001 20.2665 1.13812
127 1 -1.1104 1.09648 14.6879 3.92694
128 1 -1.1104 1.10006 20.2667 3.92783
129 1 -1.1104 1.09833 17.4771 1.13797
130 2 2.2208 5.28158 16.0838 2.53213
131 2 2.2208 5.28523 21.6621 2.5331
132 1 -1.1104 1.09814 17.4773 3.92705
133 1 -1.1104 3.88595 14.6876 1.13744
134 1 -1.1104 3.88963 20.266 1.13828
135 2 2.2208 2.4939 18.8732 2.53268
136 1 -1.1104 3.88583 14.6876 3.92649
137 1 -1.1104 3.88942 20.2662 3.9274
138 2 2.2208 2.49205 16.084 5.32164
139 2 2.2208 2.49563 21.6627 5.32254
140 1 -1.1104 3.88769 17.4769 1.13748
141 1 -1.1104 3.88775 17.4769 3.92727
145 1 -1.1104 3.88762 17.477 6.71634
291 1 -1.1104 1.09824 17.4773 6.71677
151 1 -1.1104 6.67545 14.6875 3.92681
152 1 -1.1104 6.67538 14.6875 1.13696
149 1 -1.1104 6.67735 17.4767 1.13776
150 1 -1.1104 6.6773 17.4768 6.71663
674 2 2.2208 2.49025 13.2947 13.6895
292 1 -1.1104 3.88949 20.2662 6.71713
236 1 -1.1104 12.2562 17.4779 9.50553
154 1 -1.1104 6.67906 20.2658 1.13786
153 1 -1.1104 6.67718 17.4768 3.92681
143 1 -1.1104 6.6754 14.6876 6.71583
680 2 2.2208 10.8606 16.0845 13.6895
181 2 2.2208 8.0748 21.663 10.9011
148 1 -1.1104 6.67914 20.2659 3.9277
155 2 2.2208 10.8625 18.8734 5.32199
156 1 -1.1104 12.2544 14.6878 1.13685
157 1 -1.1104 12.2583 20.2661 1.13782
158 1 -1.1104 12.2545 14.6879 3.92678
159 1 -1.1104 12.2584 20.2665 3.92784
160 1 -1.1104 12.2565 17.477 1.13777
161 2 2.2208 10.8607 16.084 2.53206
162 2 2.2208 10.8645 21.6623 2.5331
163 1 -1.1104 12.2563 17.4772 3.92679
164 1 -1.1104 9.46501 14.6876 1.13734
165 1 -1.1104 9.46884 20.2658 1.13826
166 2 2.2208 8.07298 18.8729 2.53255
167 1 -1.1104 9.4649 14.6877 3.92635
168 1 -1.1104 9.4686 20.266 3.92728
169 2 2.2208 8.07111 16.0839 5.3215
170 2 2.2208 8.07478 21.6623 5.32248
171 1 -1.1104 9.4668 17.4768 1.13732
172 1 -1.1104 9.46688 17.4769 3.92723
176 1 -1.1104 9.46873 20.2663 6.71718
175 1 -1.1104 12.2544 14.6881 6.71573
179 1 -1.1104 6.67895 20.266 6.7167
174 1 -1.1104 9.46504 14.6877 6.71621
237 1 -1.1104 9.46687 17.4773 9.50601
20 1 -1.1104 3.87669 0.740754 6.71493
21 1 -1.1104 3.87479 -2.04864 6.71521
9087 2 2.2208 -0.295743 18.8738 10.9009
185 2 2.2208 5.27243 2.13703 10.8994
186 1 -1.1104 1.08534 -2.0487 12.2936
187 1 -1.1104 1.08914 3.5302 12.2938
188 1 -1.1104 1.08534 -2.04871 9.5046
189 1 -1.1104 1.08919 3.5302 9.50477
190 1 -1.1104 1.08728 0.740783 12.2941
191 2 2.2208 5.27049 -0.652387 8.10982
192 2 2.2208 5.2743 4.92646 8.11002
193 1 -1.1104 1.08725 0.740736 9.50428
194 1 -1.1104 3.87486 -2.04866 12.2941
195 1 -1.1104 3.87865 3.53023 12.2943
196 2 2.2208 2.48296 2.13699 8.10986
197 1 -1.1104 3.87479 -2.04866 9.50423
198 1 -1.1104 3.87863 3.53018 9.50446
199 2 2.2208 2.48105 -0.652428 10.8992
200 2 2.2208 2.48484 4.92645 10.8994
201 1 -1.1104 3.87674 0.740774 12.2938
202 1 -1.1104 3.87675 0.740767 9.5048
9030 2 2.2208 -0.308446 -0.652479 8.10969
667 2 2.2208 5.27425 4.92646 13.6889
9120 2 2.2208 -0.304608 4.92644 8.10986
668 2 2.2208 5.27054 -0.652415 13.6887
669 2 2.2208 2.48296 2.13705 13.6887
57 1 -1.1104 12.247 3.53029 6.715
688 2 2.2208 10.8644 21.6639 13.6903
213 1 -1.1104 6.66432 -2.04858 9.50467
9545 2 2.2208 -0.308412 -0.652413 13.6885
290 1 -1.1104 9.46872 20.2671 12.2958
209 1 -1.1104 6.66625 0.740749 12.2943
211 1 -1.1104 6.6662 0.740818 9.50441
210 1 -1.1104 6.6681 3.53024 9.50491
214 1 -1.1104 6.66432 -2.04868 12.2937
203 1 -1.1104 6.66809 3.53018 12.294
54 1 -1.1104 9.4556 0.740848 6.71495
216 2 2.2208 10.8513 2.13697 10.8993
217 1 -1.1104 12.2433 -2.04887 12.2937
218 1 -1.1104 12.247 3.53013 12.2939
219 1 -1.1104 12.2432 -2.04878 9.50462
220 1 -1.1104 12.247 3.5302 9.50483
221 1 -1.1104 12.2452 0.740628 12.2941
222 2 2.2208 10.8494 -0.652404 8.10978
223 1 -1.1104 12.2451 0.740724 9.50431
224 1 -1.1104 9.45383 -2.04874 12.2941
225 1 -1.1104 9.45756 3.53013 12.2943
226 2 2.2208 8.06186 2.13707 8.10992
227 1 -1.1104 9.45378 -2.04868 9.50428
228 1 -1.1104 9.45755 3.53021 9.50447
229 2 2.2208 8.06001 -0.652418 10.8993
230 2 2.2208 8.06375 4.92644 10.8995
231 1 -1.1104 9.45571 0.740706 12.2938
232 1 -1.1104 9.45567 0.740772 9.50478
233 2 2.2208 10.8532 4.92651 8.11
240 1 -1.1104 6.67729 17.4771 12.2954
672 2 2.2208 10.8531 4.9264 13.6889
9114 2 2.2208 -0.300927 10.5054 8.11027
82 1 -1.1104 3.88049 6.31958 6.71516
90 1 -1.1104 1.09287 9.10904 6.71525
85 1 -1.1104 1.0947 11.8985 6.71592
83 1 -1.1104 3.88408 11.8984 6.71554
676 2 2.2208 2.48661 7.71591 13.6889
84 1 -1.1104 3.88239 9.109 6.71571
245 2 2.2208 5.27614 7.71588 10.8996
246 2 2.2208 5.2798 13.2946 10.9
247 1 -1.1104 1.09281 9.10908 12.2941
248 1 -1.1104 1.09292 9.10909 9.50506
249 1 -1.1104 1.09099 6.31965 12.2943
250 1 -1.1104 1.09469 11.8985 12.2948
251 2 2.2208 5.27799 10.5052 8.11034
252 1 -1.1104 1.09101 6.31963 9.50448
253 1 -1.1104 1.09463 11.8985 9.50498
254 1 -1.1104 3.88233 9.10907 12.2946
255 2 2.2208 2.48672 7.71587 8.11011
256 2 2.2208 2.49029 13.2947 8.11063
257 1 -1.1104 3.88233 9.10903 9.50475
258 2 2.2208 2.48851 10.5053 10.8997
259 1 -1.1104 3.88043 6.31965 12.294
260 1 -1.1104 3.88411 11.8985 12.2944
261 1 -1.1104 3.88052 6.31963 9.50499
262 1 -1.1104 3.88419 11.8984 9.50535
268 1 -1.1104 6.67363 11.8984 9.50494
270 1 -1.1104 6.67366 11.8984 12.2948
267 1 -1.1104 9.46853 20.2668 9.50597
321 2 2.2208 8.07291 18.8733 8.11133
686 2 2.2208 8.07296 18.8735 13.69
265 1 -1.1104 6.67176 9.10903 12.2942
271 1 -1.1104 6.66995 6.31965 9.50461
269 1 -1.1104 6.66993 6.31961 12.2945
263 1 -1.1104 6.67185 9.10904 9.50517
272 1 -1.1104 9.46319 11.8985 9.50532
273 1 -1.1104 9.45942 6.31964 9.505
274 1 -1.1104 9.46309 11.8985 12.2943
275 1 -1.1104 9.45935 6.3196 12.294
276 2 2.2208 8.06745 10.5053 10.8997
277 1 -1.1104 9.46128 9.10907 9.50472
278 2 2.2208 8.06931 13.2946 8.11055
279 2 2.2208 8.06564 7.7159 8.11015
280 2 2.2208 10.855 7.71589 10.8995
281 2 2.2208 10.8588 13.2949 10.8999
282 1 -1.1104 12.2507 9.10916 12.2941
283 1 -1.1104 12.2508 9.10917 9.50509
284 1 -1.1104 12.2488 6.31961 12.2944
285 1 -1.1104 12.2526 11.8987 12.2946
286 2 2.2208 10.857 10.5054 8.11027
287 1 -1.1104 12.2488 6.3197 9.50455
288 1 -1.1104 12.2526 11.8987 9.5048
289 1 -1.1104 9.46125 9.10902 12.2946
677 2 2.2208 10.8569 10.5054 13.6891
207 1 -1.1104 9.46502 14.688 12.295
684 2 2.2208 5.28157 16.084 13.6897
146 1 -1.1104 3.88596 14.6877 6.71627
144 1 -1.1104 1.09985 20.2668 6.71694
9090 2 2.2208 -0.297413 16.0843 8.1111
142 1 -1.1104 1.09637 14.6879 6.71601
298 1 -1.1104 1.09813 17.4773 12.2955
299 2 2.2208 2.49204 16.0841 10.9004
300 2 2.2208 2.49551 21.6628 10.9012
301 1 -1.1104 3.88761 17.4771 12.2951
302 1 -1.1104 3.88941 20.2663 12.2959
303 1 -1.1104 3.88595 14.6878 12.2951
304 1 -1.1104 1.09989 20.2667 9.50659
305 1 -1.1104 1.0981 17.4774 9.50584
306 2 2.2208 5.28516 21.6625 8.11183
307 1 -1.1104 1.09647 14.6879 9.50574
308 2 2.2208 5.28158 16.0839 8.11095
309 1 -1.1104 1.09974 20.2667 12.2957
310 1 -1.1104 1.09635 14.6879 12.2948
311 2 2.2208 5.28334 18.8733 10.9007
312 1 -1.1104 3.88935 20.2663 9.50618
313 2 2.2208 2.49381 18.8734 8.11148
314 1 -1.1104 3.88773 17.4771 9.50607
315 1 -1.1104 3.88588 14.6878 9.50533
27 1 -1.1104 6.67552 14.6877 9.50564
205 1 -1.1104 6.67543 14.6878 12.2946
685 2 2.2208 2.49374 18.8733 13.6902
81 1 -1.1104 12.2544 14.6884 12.2944
26 2 2.2208 8.07112 16.0841 10.9003
318 1 -1.1104 12.2582 20.2676 9.5066
29 1 -1.1104 12.2563 17.4782 12.2953
19 1 -1.1104 12.258 20.2681 12.2952
182 1 -1.1104 9.46677 17.4775 12.2948
266 2 2.2208 10.8624 18.8741 10.9006
178 1 -1.1104 12.2564 17.4775 6.71669
173 1 -1.1104 9.46673 17.4771 6.71618
177 1 -1.1104 12.2581 20.267 6.71674
61 2 2.2208 10.8606 16.0843 8.11087
238 1 -1.1104 6.67902 20.2664 12.2953
204 1 -1.1104 6.67909 20.2663 9.50649
295 1 -1.1104 12.2545 14.6882 9.50556
317 1 -1.1104 6.67719 17.477 9.5056
208 2 2.2208 10.8643 21.6633 8.11186
670 2 2.2208 8.06189 2.13698 13.6888
673 2 2.2208 10.8495 -0.652531 13.6886
675 2 2.2208 5.27794 10.5053 13.6892
678 2 2.2208 8.06928 13.2947 13.6894
9246 2 2.2208 -0.304693 4.92651 13.6887
687 2 2.2208 5.28518 21.6624 13.6905
239 2 2.2208 13.6521 18.8735 2.5326
184 2 2.2208 13.6537 21.6646 10.9011
235 2 2.2208 13.6539 21.6633 5.32259
123 2 2.2208 13.6519 18.8743 8.11139
345 2 2.2208 5.27237 2.13705 16.4782
346 1 -1.1104 1.08539 -2.04863 17.8724
347 1 -1.1104 1.08901 3.5303 17.8726
348 1 -1.1104 1.08541 -2.04866 15.0834
349 1 -1.1104 1.08911 3.53026 15.0836
350 1 -1.1104 1.08724 0.740857 17.8729
351 2 2.2208 5.27051 -0.652378 19.2674
352 1 -1.1104 1.08724 0.740799 15.0831
353 1 -1.1104 3.87489 -2.04862 17.8728
354 1 -1.1104 3.87851 3.53026 17.8731
355 2 2.2208 2.48284 2.1371 19.2675
356 1 -1.1104 3.87484 -2.04865 15.083
357 1 -1.1104 3.87857 3.53023 15.0833
358 2 2.2208 2.48106 -0.652372 16.478
359 1 -1.1104 3.87668 0.740818 17.8726
360 1 -1.1104 3.87676 0.740804 15.0836
361 2 2.2208 2.48471 4.92652 16.4782
362 2 2.2208 5.27409 4.92649 19.2677
524 1 -1.1104 3.87667 0.740837 20.6624
9483 2 2.2208 -0.308425 -0.652344 19.2673
379 1 -1.1104 6.66794 3.5302 17.8728
371 1 -1.1104 6.6679 3.53022 20.6626
369 1 -1.1104 1.08539 -2.04861 20.6622
368 1 -1.1104 3.87482 -2.0486 20.6618
380 1 -1.1104 6.66435 -2.04868 17.8725
363 1 -1.1104 6.66806 3.53019 15.0838
340 2 2.2208 8.07489 21.6618 27.638
377 1 -1.1104 6.66437 -2.04866 15.0835
373 1 -1.1104 6.6662 0.740772 15.0833
378 1 -1.1104 6.6662 0.740749 17.873
381 2 2.2208 10.8513 2.13695 16.4782
382 1 -1.1104 12.2433 -2.04888 17.8725
383 1 -1.1104 12.2468 3.53015 17.8727
384 1 -1.1104 12.2433 -2.04887 15.0835
385 1 -1.1104 12.2469 3.5301 15.0837
386 1 -1.1104 12.2451 0.740618 17.873
387 2 2.2208 10.8494 -0.652519 19.2675
388 2 2.2208 10.853 4.92643 19.2677
389 1 -1.1104 12.2451 0.740642 15.0832
390 1 -1.1104 9.45386 -2.04874 17.8729
391 1 -1.1104 9.45742 3.53018 17.8732
392 2 2.2208 8.06177 2.13701 19.2676
393 1 -1.1104 9.45383 -2.04877 15.0831
394 1 -1.1104 9.45748 3.53017 15.0834
395 2 2.2208 8.06002 -0.652454 16.4781
396 2 2.2208 8.06362 4.92645 16.4783
397 1 -1.1104 9.45562 0.740748 17.8726
398 1 -1.1104 9.45571 0.740693 15.0836
399 1 -1.1104 12.245 0.740683 20.662
403 1 -1.1104 12.2468 3.53014 20.6625
400 1 -1.1104 9.45731 3.53015 20.6622
374 1 -1.1104 6.6661 0.740805 20.6621
553 1 -1.1104 6.66434 -2.04862 20.6623
9458 2 2.2208 -0.299285 13.2948 16.4789
9211 2 2.2208 -0.302841 7.71575 27.6361
406 2 2.2208 5.27601 7.71589 16.4785
407 2 2.2208 5.27974 13.2946 16.4789
408 1 -1.1104 1.09269 9.10913 17.873
409 1 -1.1104 1.09282 9.10912 15.0839
410 1 -1.1104 1.09086 6.31973 17.8732
411 1 -1.1104 1.09457 11.8985 17.8737
412 2 2.2208 5.27784 10.5053 19.2681
413 1 -1.1104 1.09088 6.31969 15.0833
414 1 -1.1104 1.09456 11.8985 15.0838
415 1 -1.1104 3.8822 9.10906 17.8734
416 2 2.2208 2.48649 7.71594 19.2678
417 2 2.2208 2.49019 13.2946 19.2684
418 1 -1.1104 3.88222 9.10906 15.0836
419 2 2.2208 2.48841 10.5053 16.4786
420 1 -1.1104 3.88027 6.31967 17.8729
421 1 -1.1104 3.88402 11.8984 17.8733
422 1 -1.1104 3.88039 6.31966 15.0838
423 1 -1.1104 3.88412 11.8984 15.0842
431 1 -1.1104 3.88026 6.31967 20.6627
9215 2 2.2208 -0.299184 13.2946 27.6368
9341 2 2.2208 -0.302984 7.71589 22.0572
435 1 -1.1104 6.67357 11.8984 15.0838
438 1 -1.1104 6.66976 6.31961 17.8733
434 1 -1.1104 6.67163 9.10902 17.8731
432 1 -1.1104 1.09447 11.8984 20.6627
425 1 -1.1104 3.88401 11.8983 20.6631
430 1 -1.1104 1.09268 9.10908 20.6628
436 1 -1.1104 6.67173 9.109 15.084
437 1 -1.1104 6.66983 6.31962 15.0835
427 1 -1.1104 6.67357 11.8983 17.8736
439 2 2.2208 10.8549 7.71588 16.4784
440 2 2.2208 10.8587 13.2948 16.4786
441 1 -1.1104 12.2505 9.10914 17.8729
442 1 -1.1104 12.2506 9.10911 15.0839
443 1 -1.1104 12.2486 6.31961 17.8732
444 1 -1.1104 12.2525 11.8986 17.8734
445 2 2.2208 10.8568 10.5053 19.2679
446 1 -1.1104 12.2487 6.31964 15.0834
447 1 -1.1104 12.2525 11.8987 15.0835
448 1 -1.1104 9.46111 9.10901 17.8734
449 2 2.2208 8.06539 7.71586 19.2679
450 2 2.2208 8.06924 13.2946 19.2682
451 1 -1.1104 9.46116 9.10905 15.0836
452 2 2.2208 8.06735 10.5053 16.4786
453 1 -1.1104 9.45918 6.31964 17.8729
454 1 -1.1104 9.46303 11.8984 17.8731
455 1 -1.1104 9.45931 6.31959 15.0839
456 1 -1.1104 9.46309 11.8985 15.0841
339 2 2.2208 2.49211 16.0838 27.6372
342 2 2.2208 5.28349 18.8729 27.6375
462 1 -1.1104 12.2486 6.31962 20.6622
458 1 -1.1104 9.46302 11.8983 20.663
459 1 -1.1104 6.67161 9.109 20.6629
461 1 -1.1104 9.45917 6.31957 20.6627
460 1 -1.1104 6.66969 6.31963 20.6623
464 1 -1.1104 12.2505 9.10901 20.6627
457 1 -1.1104 12.2525 11.8984 20.6624
463 1 -1.1104 9.46104 9.10897 20.6624
9426 2 2.2208 -0.295622 18.8733 22.0587
9372 2 2.2208 -0.304781 4.92638 24.8465
9402 2 2.2208 -0.306575 2.13711 16.478
466 2 2.2208 10.8607 16.0838 24.8474
469 2 2.2208 5.2834 18.873 16.4795
470 1 -1.1104 1.09629 14.6878 17.8736
471 1 -1.1104 1.09981 20.2663 17.8745
472 1 -1.1104 1.09636 14.6879 15.0845
473 1 -1.1104 1.09979 20.2665 15.0854
474 1 -1.1104 1.09814 17.4771 17.8744
475 2 2.2208 5.28158 16.0837 19.2686
476 2 2.2208 5.28525 21.6618 19.2694
477 1 -1.1104 1.09804 17.4772 15.0846
478 1 -1.1104 3.88589 14.6876 17.874
479 1 -1.1104 3.88949 20.2658 17.8747
480 2 2.2208 2.49383 18.873 19.2691
481 1 -1.1104 3.88583 14.6877 15.0841
482 1 -1.1104 3.88942 20.2661 15.0849
483 2 2.2208 2.492 16.0839 16.4793
484 2 2.2208 2.49551 21.6623 16.48
485 1 -1.1104 3.88766 17.4768 17.8739
486 1 -1.1104 3.88768 17.4769 15.0849
496 1 -1.1104 6.67542 14.6876 17.8734
517 1 -1.1104 6.6773 17.4766 20.6632
489 1 -1.1104 3.88583 14.6876 20.663
9481 2 2.2208 -0.302896 7.71599 16.4783
9431 2 2.2208 -0.297485 16.0841 19.2688
608 2 2.2208 8.07116 16.0837 22.058
493 1 -1.1104 6.67546 14.6877 15.0844
492 1 -1.1104 6.67914 20.2661 15.0851
9478 2 2.2208 -0.30112 10.5054 19.268
488 1 -1.1104 1.09814 17.477 20.6636
631 1 -1.1104 1.09995 20.2661 20.6643
636 1 -1.1104 3.88949 20.2658 20.6638
9455 2 2.2208 -0.295792 18.8735 16.4797
547 1 -1.1104 6.67914 20.2655 23.4532
487 1 -1.1104 6.67917 20.2658 17.8741
497 1 -1.1104 6.67733 17.4768 17.8742
495 1 -1.1104 6.67544 14.6875 20.6633
498 1 -1.1104 6.67726 17.477 15.0843
499 2 2.2208 10.8625 18.8738 16.4792
500 1 -1.1104 12.2544 14.6881 17.8732
501 1 -1.1104 12.2583 20.2672 17.8738
502 1 -1.1104 12.2544 14.6883 15.0842
503 1 -1.1104 12.2582 20.2679 15.085
504 1 -1.1104 12.2564 17.4776 17.8739
505 2 2.2208 10.8607 16.084 19.2683
506 2 2.2208 10.8644 21.6626 19.269
507 1 -1.1104 12.2563 17.478 15.084
508 1 -1.1104 9.46499 14.6877 17.8737
509 1 -1.1104 9.46879 20.2663 17.8744
510 2 2.2208 8.07307 18.8729 19.2688
511 1 -1.1104 9.46496 14.688 15.0839
512 1 -1.1104 9.46875 20.2669 15.0845
513 2 2.2208 8.07115 16.084 16.479
514 2 2.2208 8.0749 21.6625 16.4797
515 1 -1.1104 9.4669 17.4771 17.8735
516 1 -1.1104 9.46686 17.4774 15.0846
607 2 2.2208 8.07309 18.8727 24.8479
519 1 -1.1104 12.2583 20.2663 20.6638
494 1 -1.1104 12.2564 17.4771 20.6629
522 1 -1.1104 12.2545 14.6878 20.6631
465 1 -1.1104 12.2544 14.6876 23.4522
336 2 2.2208 8.06734 10.5052 27.6364
660 1 -1.1104 9.46491 14.6876 26.2418
366 1 -1.1104 1.08898 3.53029 20.6625
664 1 -1.1104 12.2564 17.4768 23.453
9371 2 2.2208 -0.308489 -0.65241 24.8461
577 2 2.2208 10.8645 21.6618 24.8483
370 1 -1.1104 3.87841 3.53025 20.6622
367 1 -1.1104 1.08718 0.74084 20.6619
526 2 2.2208 5.27228 2.13707 22.057
527 1 -1.1104 1.08531 -2.04865 23.4512
528 1 -1.1104 1.08897 3.53018 23.4515
529 1 -1.1104 1.08529 -2.0486 26.2411
530 1 -1.1104 1.08907 3.53014 26.2414
531 1 -1.1104 1.08719 0.740797 23.4517
532 2 2.2208 5.27046 -0.652318 24.8463
533 1 -1.1104 1.08716 0.740751 26.2408
534 1 -1.1104 3.87482 -2.04856 23.4517
535 1 -1.1104 3.87846 3.53024 23.452
536 2 2.2208 2.48284 2.13703 24.8464
537 1 -1.1104 3.87473 -2.04854 26.2407
538 1 -1.1104 3.87851 3.53018 26.241
539 2 2.2208 2.48101 -0.652344 22.0568
540 1 -1.1104 3.87663 0.740822 23.4514
541 1 -1.1104 3.87667 0.740832 26.2413
542 2 2.2208 5.27413 4.92648 24.8466
543 2 2.2208 2.48463 4.92649 22.0571
9401 2 2.2208 -0.306641 2.13707 22.0568
322 2 2.2208 2.48096 -0.652374 27.6357
544 1 -1.1104 6.66612 0.740872 26.2409
549 1 -1.1104 6.66424 -2.04851 26.2412
550 1 -1.1104 6.66789 3.53025 23.4516
555 1 -1.1104 6.66613 0.740849 23.4519
324 2 2.2208 2.48476 4.92636 27.636
327 2 2.2208 5.27236 2.13708 27.6359
402 1 -1.1104 9.45376 -2.04875 20.6619
401 1 -1.1104 12.2432 -2.04885 20.6623
330 2 2.2208 10.8512 2.13715 27.6359
404 1 -1.1104 9.4556 0.740697 20.6624
554 1 -1.1104 6.66423 -2.04856 23.4513
548 1 -1.1104 6.66799 3.53029 26.2415
556 2 2.2208 10.8512 2.13698 22.057
557 1 -1.1104 12.2431 -2.0488 23.4513
558 1 -1.1104 12.2467 3.53016 23.4516
559 1 -1.1104 12.2431 -2.0487 26.2412
560 1 -1.1104 12.2468 3.53027 26.2414
561 1 -1.1104 12.245 0.740676 23.4518
562 2 2.2208 10.8493 -0.652408 24.8463
563 1 -1.1104 12.2449 0.740809 26.2409
564 1 -1.1104 9.45372 -2.04869 23.4517
565 1 -1.1104 9.45738 3.5302 23.452
566 2 2.2208 8.06176 2.1371 24.8465
567 1 -1.1104 9.45361 -2.04856 26.2408
568 1 -1.1104 9.45739 3.53031 26.2411
569 2 2.2208 8.05993 -0.652398 22.0569
570 1 -1.1104 9.45552 0.740771 23.4515
571 1 -1.1104 9.45558 0.740892 26.2414
572 2 2.2208 10.853 4.92651 24.8466
573 2 2.2208 8.06354 4.92646 22.0572
329 2 2.2208 8.06366 4.92656 27.636
337 2 2.2208 10.8549 7.71598 27.6362
328 2 2.2208 8.05989 -0.652271 27.6358
580 1 -1.1104 12.2564 17.4768 26.2421
334 2 2.2208 2.48842 10.5051 27.6364
424 1 -1.1104 3.8821 9.10904 20.6625
426 1 -1.1104 1.09079 6.31968 20.6622
428 1 -1.1104 6.67349 11.8983 20.6627
333 2 2.2208 5.27603 7.71582 27.6362
583 2 2.2208 5.27592 7.71588 22.0573
584 2 2.2208 5.2797 13.2945 22.0578
585 1 -1.1104 1.09264 9.10898 23.4519
586 1 -1.1104 1.09276 9.10892 26.2417
587 1 -1.1104 1.09081 6.3196 23.4521
588 1 -1.1104 1.09453 11.8984 23.4526
589 2 2.2208 5.27781 10.5052 24.847
590 1 -1.1104 1.09089 6.31949 26.2411
591 1 -1.1104 1.09452 11.8983 26.2416
592 1 -1.1104 3.88213 9.10897 23.4523
593 2 2.2208 2.48651 7.7158 24.8467
594 2 2.2208 2.49021 13.2945 24.8473
595 1 -1.1104 3.88215 9.1089 26.2414
596 2 2.2208 2.48832 10.5052 22.0575
597 1 -1.1104 3.88025 6.3196 23.4517
598 1 -1.1104 3.88394 11.8983 23.4522
599 1 -1.1104 3.88036 6.31956 26.2416
600 1 -1.1104 3.88404 11.8982 26.242
604 1 -1.1104 6.66975 6.31965 23.4521
611 1 -1.1104 6.67157 9.109 23.4519
663 2 2.2208 10.8626 18.8729 22.0582
610 1 -1.1104 6.67166 9.109 26.2418
605 1 -1.1104 6.67349 11.8983 23.4525
9406 2 2.2208 -0.299276 13.2947 22.0578
335 2 2.2208 10.8587 13.2946 27.6366
603 1 -1.1104 6.66978 6.31965 26.2412
606 1 -1.1104 6.67346 11.8983 26.2416
613 1 -1.1104 9.46109 9.10899 23.4523
614 1 -1.1104 12.2524 11.8984 26.2414
615 1 -1.1104 12.2487 6.3197 26.2411
616 2 2.2208 10.8568 10.5053 24.8468
617 1 -1.1104 12.2525 11.8984 23.4524
618 1 -1.1104 12.2486 6.31962 23.4521
619 1 -1.1104 12.2506 9.1091 26.2417
620 1 -1.1104 12.2505 9.10904 23.4518
621 1 -1.1104 9.46301 11.8983 26.2419
622 1 -1.1104 9.45927 6.31972 26.2416
623 1 -1.1104 9.46295 11.8983 23.452
624 1 -1.1104 9.45915 6.31963 23.4518
625 2 2.2208 8.06728 10.5052 22.0575
626 1 -1.1104 9.46108 9.10905 26.2413
627 2 2.2208 8.06921 13.2945 24.8471
628 2 2.2208 8.06542 7.7159 24.8467
629 2 2.2208 10.8548 7.71586 22.0573
630 2 2.2208 10.8587 13.2946 22.0576
525 1 -1.1104 6.6773 17.4766 26.2422
657 1 -1.1104 6.67546 14.6875 26.2423
521 1 -1.1104 6.67921 20.2656 20.664
9342 2 2.2208 -0.297359 16.084 24.8478
655 1 -1.1104 6.67738 17.4766 23.4531
490 1 -1.1104 3.88776 17.4767 20.6638
491 1 -1.1104 1.09639 14.6877 20.6635
637 2 2.2208 2.49567 21.662 22.059
638 1 -1.1104 3.88772 17.4767 23.4529
639 1 -1.1104 1.09829 17.477 23.4534
640 1 -1.1104 3.88586 14.6875 26.242
641 1 -1.1104 3.88785 17.4767 26.2428
642 2 2.2208 2.49395 18.873 24.8481
643 1 -1.1104 3.88956 20.2659 26.2428
644 2 2.2208 5.28347 18.8727 22.0585
645 1 -1.1104 1.09635 14.6877 23.4526
646 1 -1.1104 1.09998 20.2662 23.4535
647 2 2.2208 5.28162 16.0837 24.8476
648 2 2.2208 5.28532 21.6617 24.8485
649 1 -1.1104 1.09647 14.6877 26.2425
650 1 -1.1104 1.09823 17.477 26.2426
651 1 -1.1104 1.10019 20.2663 26.2433
652 1 -1.1104 3.88593 14.6875 23.4529
653 1 -1.1104 3.88963 20.2657 23.4537
654 2 2.2208 2.49207 16.0838 22.0582
343 2 2.2208 2.49577 21.6623 27.6381
609 1 -1.1104 12.2584 20.2659 26.2431
656 1 -1.1104 6.67538 14.6875 23.4524
338 2 2.2208 8.07116 16.0837 27.637
344 2 2.2208 10.8626 18.873 27.6374
662 1 -1.1104 6.67928 20.2656 26.2431
375 1 -1.1104 9.46698 17.4766 26.2426
579 1 -1.1104 12.2545 14.6877 26.2421
633 1 -1.1104 9.46874 20.2656 26.2426
661 1 -1.1104 9.46686 17.4766 23.4526
612 1 -1.1104 9.46498 14.6875 23.4527
372 1 -1.1104 9.46884 20.2656 23.4535
518 1 -1.1104 9.46693 17.4767 20.6635
523 1 -1.1104 9.46495 14.6876 20.6628
520 1 -1.1104 9.46879 20.2658 20.6634
634 2 2.2208 8.07491 21.6616 22.0588
551 1 -1.1104 12.2583 20.2659 23.453
9212 2 2.2208 -0.306602 2.13694 27.6358
332 2 2.2208 5.27972 13.2945 27.6367
9479 2 2.2208 -0.30109 10.5052 24.8469
9482 2 2.2208 -0.304809 4.92656 19.2676
376 2 2.2208 13.6521 18.8731 24.8478
582 2 2.2208 13.6538 21.6642 16.4795
575 2 2.2208 13.6539 21.6626 22.0586
341 2 2.2208 13.654 21.6624 27.6379
689 2 2.2208 5.28703 24.4514 5.32291
690 2 2.2208 5.29101 30.0296 5.3235
691 1 -1.1104 1.1035 25.8454 1.13889
692 1 -1.1104 1.10355 25.8455 3.92846
693 1 -1.1104 1.10193 23.0559 1.13879
694 1 -1.1104 1.10555 28.6349 1.13944
695 2 2.2208 5.28892 27.2403 2.53404
696 1 -1.1104 1.10169 23.0561 3.92795
697 1 -1.1104 1.10529 28.6351 3.92855
698 1 -1.1104 3.89315 25.8444 1.13915
699 2 2.2208 2.49748 24.4519 2.53358
700 2 2.2208 2.50138 30.0308 2.53437
701 1 -1.1104 3.89297 25.8445 3.92826
702 2 2.2208 2.4993 27.2414 5.32319
703 1 -1.1104 3.89124 23.0552 1.13847
704 1 -1.1104 3.89481 28.6335 1.13933
705 1 -1.1104 3.89132 23.0553 3.92816
706 1 -1.1104 3.89494 28.6336 3.92878
1028 2 2.2208 5.30205 41.1923 -0.253525
1026 2 2.2208 8.08237 32.8172 -0.253463
716 1 -1.1104 1.10169 23.0561 6.71756
711 1 -1.1104 3.89116 23.0554 6.71724
1031 2 2.2208 10.8755 41.1903 -0.258352
920 2 2.2208 10.8664 44.0289 8.14887
1005 1 -1.1104 6.66193 48.0112 9.35855
1006 2 2.2208 8.02228 46.6963 8.03427
713 1 -1.1104 6.68282 25.8438 3.92862
712 1 -1.1104 6.68472 28.6325 1.13966
708 1 -1.1104 6.6846 28.6325 3.92858
719 1 -1.1104 6.68262 25.8436 1.13888
721 1 -1.1104 6.6808 23.0549 3.92782
720 1 -1.1104 6.68101 23.0547 1.13877
722 2 2.2208 10.8663 24.452 5.32305
723 2 2.2208 10.8705 30.0303 5.32415
724 1 -1.1104 12.262 25.8441 1.13871
725 1 -1.1104 12.2624 25.8447 3.92891
726 1 -1.1104 12.2603 23.0551 1.13884
727 1 -1.1104 12.2644 28.6328 1.13979
728 2 2.2208 10.8683 27.2403 2.53417
729 1 -1.1104 12.2601 23.0556 3.92783
730 1 -1.1104 12.2642 28.6335 3.92876
731 1 -1.1104 9.47257 25.8435 1.13928
732 2 2.2208 8.07669 24.451 2.53361
733 2 2.2208 8.08064 30.0289 2.53467
734 1 -1.1104 9.4724 25.8439 3.92825
735 2 2.2208 8.07869 27.2404 5.32337
736 1 -1.1104 9.4705 23.0547 1.13833
737 1 -1.1104 9.47427 28.6322 1.13928
738 1 -1.1104 9.47067 23.0551 3.9283
739 1 -1.1104 9.47471 28.6327 3.92925
741 1 -1.1104 9.47046 23.0555 6.71717
743 1 -1.1104 9.47271 25.8445 6.71828
866 1 -1.1104 6.68097 23.0551 6.71761
893 1 -1.1104 12.2603 23.0564 6.71787
1008 2 2.2208 13.6475 41.2555 13.6726
742 1 -1.1104 9.47452 28.6331 6.71805
892 1 -1.1104 12.2646 28.635 6.71916
740 1 -1.1104 12.262 25.8458 6.71777
975 1 -1.1104 9.48781 39.7931 9.5129
890 1 -1.1104 9.47659 42.5572 12.3189
746 2 2.2208 5.29558 35.608 5.32421
747 1 -1.1104 1.10732 31.4247 1.13958
748 1 -1.1104 1.1121 37.0055 1.14026
749 1 -1.1104 1.10732 31.4248 3.92892
750 1 -1.1104 1.1116 37.0053 3.92914
751 1 -1.1104 1.10983 34.2148 1.1402
752 2 2.2208 5.29312 32.819 2.53506
753 2 2.2208 5.29799 38.399 2.53552
754 1 -1.1104 1.10939 34.2148 3.92894
755 1 -1.1104 3.89699 31.4229 1.13992
756 1 -1.1104 3.90134 37.0027 1.1406
757 2 2.2208 2.50631 35.6108 2.53527
758 1 -1.1104 3.89679 31.4227 3.92884
759 1 -1.1104 3.90087 37.0014 3.92897
760 2 2.2208 2.50364 32.8204 5.32363
761 2 2.2208 2.50949 38.4006 5.32358
762 1 -1.1104 3.89888 34.2125 1.14015
763 1 -1.1104 3.89885 34.212 3.9292
773 1 -1.1104 3.89893 34.2108 6.71816
768 1 -1.1104 3.89684 31.4223 6.71822
764 1 -1.1104 3.90096 36.9997 6.71834
769 1 -1.1104 1.10924 34.2142 6.71817
778 1 -1.1104 6.68878 34.2106 1.14056
771 1 -1.1104 6.69086 37.0001 1.14039
770 1 -1.1104 6.68643 31.4214 1.13983
779 1 -1.1104 6.68872 34.2095 3.92913
952 1 -1.1104 12.2715 39.8005 9.51376
777 1 -1.1104 6.68676 31.4212 3.9292
766 1 -1.1104 6.69028 36.9978 3.92935
780 2 2.2208 10.8749 35.608 5.32542
781 1 -1.1104 12.2661 31.4213 1.13963
782 1 -1.1104 12.2707 36.9976 1.14014
783 1 -1.1104 12.2669 31.4221 3.93011
784 1 -1.1104 12.2718 36.9969 3.92995
785 1 -1.1104 12.2688 34.2097 1.1406
786 2 2.2208 10.8724 32.8181 2.53558
787 2 2.2208 10.8743 38.3959 2.53643
788 1 -1.1104 12.269 34.2099 3.9298
789 1 -1.1104 9.47666 31.4209 1.14027
790 1 -1.1104 9.48049 36.9988 1.14076
791 2 2.2208 8.08469 35.6075 2.53609
792 1 -1.1104 9.47659 31.4209 3.92905
793 1 -1.1104 9.4806 36.9969 3.92969
794 2 2.2208 8.08301 32.8181 5.32407
795 2 2.2208 8.08603 38.3959 5.32639
796 1 -1.1104 9.47835 34.2096 1.14043
797 1 -1.1104 9.47914 34.2093 3.92993
772 1 -1.1104 6.68682 31.4208 6.71802
800 1 -1.1104 6.68895 34.2086 6.71863
946 1 -1.1104 9.47716 31.4214 6.71931
1030 2 2.2208 2.51993 43.9875 -0.254441
9682 2 2.2208 13.6671 38.3978 5.32386
891 1 -1.1104 9.48502 39.7918 12.2983
978 1 -1.1104 9.4886 45.3757 12.4661
863 2 2.2208 13.6642 35.6078 2.53582