ITEM: TIMESTEP
290
ITEM: NUMBER OF ATOMS
17692
ITEM: BOX BOUNDS pp pp pp
-2.7717828229332220e-01 2.7617178282293317e+01
-3.4472205766305355e+00 3.3152722057663055e+02
-2.7717827830221448e-01 2.7617178278302212e+01
ITEM: ATOMS id type q x y z
1 2 2.2208 5.27889 2.13733 5.3164
2 1 -1.1104 1.09241 -2.0503 1.13183
3 1 -1.1104 1.0954 3.53175 1.13218
4 1 -1.1104 1.09246 -2.0503 3.92161
5 1 -1.1104 1.09544 3.53179 3.92193
6 1 -1.1104 1.09396 0.740718 1.13232
7 2 2.2208 5.27741 -0.653745 2.52677
8 1 -1.1104 1.09392 0.740764 3.92145
9 1 -1.1104 3.88193 -2.05034 1.13215
10 1 -1.1104 3.88492 3.53167 1.13245
11 2 2.2208 2.48942 2.13731 2.52695
12 1 -1.1104 3.88189 -2.0503 3.92128
13 1 -1.1104 3.88486 3.53176 3.92161
14 2 2.2208 2.48792 -0.653665 5.31623
15 2 2.2208 2.49086 4.92839 5.31658
16 1 -1.1104 3.8834 0.740666 1.13198
17 1 -1.1104 3.88343 0.740726 3.92174
18 2 2.2208 5.28037 4.92828 2.52713
348 2 2.2208 2.48792 -0.653747 -0.262654
347 2 2.2208 2.49091 4.92827 -0.262318
29 1 -1.1104 6.67287 0.740686 3.92144
22 1 -1.1104 6.67141 -2.05034 3.92158
349 2 2.2208 8.06985 4.92824 -0.26231
56 2 2.2208 2.48641 -3.44474 2.52663
346 2 2.2208 5.2789 2.13722 -0.262509
21 1 -1.1104 6.6744 3.53171 3.92193
19 1 -1.1104 6.67138 -2.05036 1.13181
335 2 2.2208 5.27588 -3.44475 5.31608
337 2 2.2208 10.8636 13.3013 -0.261649
330 1 -1.1104 12.2619 20.2796 9.50248
334 2 2.2208 2.49638 16.0919 -0.261448
23 1 -1.1104 6.67436 3.53165 1.13216
28 2 2.2208 2.48639 -3.44474 8.10552
20 1 -1.1104 6.67293 0.740646 1.1323
31 2 2.2208 10.8578 2.13736 5.3164
32 1 -1.1104 12.2503 -2.05041 1.1318
33 1 -1.1104 12.2533 3.53173 1.13215
34 1 -1.1104 12.2503 -2.05037 3.92158
35 1 -1.1104 12.2533 3.53182 3.92194
36 1 -1.1104 12.2518 0.740648 1.1323
37 2 2.2208 10.8563 -0.653769 2.52677
38 1 -1.1104 12.2518 0.740723 3.92143
39 1 -1.1104 9.46088 -2.05039 1.13214
40 1 -1.1104 9.46389 3.53169 1.13248
41 2 2.2208 8.06838 2.13727 2.52694
42 1 -1.1104 9.46085 -2.05036 3.92126
43 1 -1.1104 9.46381 3.53174 3.92161
44 2 2.2208 8.06688 -0.653724 5.31622
45 1 -1.1104 9.46235 0.74065 1.13198
46 1 -1.1104 9.46239 0.740686 3.92176
47 2 2.2208 8.06984 4.92837 5.31657
48 2 2.2208 10.8593 4.92837 2.52714
343 2 2.2208 8.06688 -0.653798 -0.262676
57 2 2.2208 8.07274 10.5102 -0.261895
341 2 2.2208 10.8579 2.13725 -0.262508
171 2 2.2208 8.07805 21.6731 -0.260761
168 1 -1.1104 6.67434 3.53179 6.71104
54 1 -1.1104 12.2533 3.53188 6.71105
49 1 -1.1104 9.46234 0.740749 6.71085
345 2 2.2208 10.8608 7.71934 -0.262086
200 2 2.2208 2.49374 10.5102 -0.261919
58 2 2.2208 5.28178 7.71935 5.31677
59 2 2.2208 5.28457 13.3012 5.31723
60 1 -1.1104 1.09826 9.11371 1.13257
61 1 -1.1104 1.09827 9.11378 3.9223
62 1 -1.1104 1.09691 6.32275 1.13265
63 1 -1.1104 1.09969 11.9046 1.13305
64 2 2.2208 5.28322 10.5102 2.52755
65 1 -1.1104 1.09682 6.32281 3.92181
66 1 -1.1104 1.09956 11.9048 3.92226
67 1 -1.1104 3.88781 9.11358 1.13284
68 2 2.2208 2.49232 7.71931 2.52733
69 2 2.2208 2.49506 13.3012 2.52777
70 1 -1.1104 3.88771 9.1137 3.92201
71 2 2.2208 2.49368 10.5104 5.31698
72 1 -1.1104 3.88634 6.32264 1.13235
73 1 -1.1104 3.88912 11.9045 1.1328
74 1 -1.1104 3.88636 6.32273 3.9221
75 1 -1.1104 3.88916 11.9046 3.92252
78 1 -1.1104 6.67728 9.11368 3.92233
342 2 2.2208 5.28183 7.7192 -0.26212
83 1 -1.1104 6.67869 11.9048 6.71198
82 1 -1.1104 3.88775 9.11377 6.71174
79 1 -1.1104 6.67872 11.9045 1.13309
30 2 2.2208 5.28461 13.301 -0.26168
76 1 -1.1104 6.67579 6.3227 3.9218
85 1 -1.1104 6.67587 6.32264 1.13268
319 2 2.2208 8.0755 16.0927 10.8963
77 1 -1.1104 6.67862 11.9046 3.92224
80 1 -1.1104 6.67724 9.1136 1.13257
88 2 2.2208 10.8607 7.71953 5.31678
89 2 2.2208 10.8636 13.3017 5.3173
90 1 -1.1104 12.2562 9.11388 1.13258
91 1 -1.1104 12.2562 9.11403 3.92237
92 1 -1.1104 12.2548 6.32281 1.1327
93 1 -1.1104 12.2577 11.9049 1.13316
94 2 2.2208 10.8622 10.5105 2.52758
95 1 -1.1104 12.2547 6.32293 3.92182
96 1 -1.1104 12.2576 11.9051 3.92226
97 1 -1.1104 9.4668 9.11369 1.13291
98 2 2.2208 8.07129 7.7193 2.52735
99 2 2.2208 8.07411 13.3012 2.52781
100 1 -1.1104 9.4667 9.11382 3.92202
101 2 2.2208 8.0727 10.5104 5.317
102 1 -1.1104 9.46528 6.3227 1.13236
103 1 -1.1104 9.46814 11.9046 1.13279
104 1 -1.1104 9.46532 6.32279 3.92214
105 1 -1.1104 9.46822 11.9048 3.92261
263 1 -1.1104 9.46677 9.11395 6.7118
287 1 -1.1104 9.47241 20.2779 6.71307
259 1 -1.1104 9.46812 11.905 6.71169
109 1 -1.1104 12.2561 9.11417 6.71146
107 1 -1.1104 12.2548 6.32304 6.71159
350 2 2.2208 10.8548 -3.44487 -0.262822
325 1 -1.1104 12.2591 14.6968 9.50176
285 1 -1.1104 9.47103 17.4874 9.50205
136 2 2.2208 5.28719 18.8824 -0.261138
284 1 -1.1104 12.2605 17.4885 12.2914
112 2 2.2208 5.28721 18.8829 5.31782
113 1 -1.1104 1.10092 14.6956 1.13305
114 1 -1.1104 1.10334 20.2771 1.13365
115 1 -1.1104 1.10098 14.6957 3.92273
116 1 -1.1104 1.10345 20.2774 3.92326
117 1 -1.1104 1.10226 17.4864 1.13351
118 2 2.2208 5.28592 16.0919 2.52806
119 2 2.2208 5.28846 21.6733 2.52872
120 1 -1.1104 1.10214 17.4866 3.92279
121 1 -1.1104 3.89053 14.6953 1.13331
122 1 -1.1104 3.89305 20.2767 1.13386
123 2 2.2208 2.49761 18.8828 2.52833
124 1 -1.1104 3.89041 14.6955 3.92251
125 1 -1.1104 3.89294 20.2769 3.92312
126 2 2.2208 2.49634 16.0922 5.31748
127 2 2.2208 2.49881 21.6738 5.31808
128 1 -1.1104 3.89171 17.4861 1.13331
129 1 -1.1104 3.89182 17.4862 3.92303
133 1 -1.1104 6.67999 14.6953 1.13304
138 1 -1.1104 3.89049 14.6957 6.7122
134 1 -1.1104 6.68273 20.2769 3.92346
141 2 2.2208 2.49882 21.6733 -0.260825
292 1 -1.1104 1.10085 14.6959 6.71195
322 2 2.2208 10.865 16.0931 8.107
199 2 2.2208 10.8677 21.6754 8.10771
166 2 2.2208 10.8663 18.883 -0.26109
130 1 -1.1104 6.68255 20.2766 1.13363
131 1 -1.1104 6.6813 17.4862 3.9228
132 1 -1.1104 6.68141 17.486 1.13362
137 1 -1.1104 6.68007 14.6955 3.92283
144 2 2.2208 10.8663 18.8837 5.31795
145 1 -1.1104 12.259 14.6958 1.13308
146 1 -1.1104 12.2617 20.2776 1.13365
147 1 -1.1104 12.2591 14.6961 3.92294
148 1 -1.1104 12.2619 20.2781 3.92366
149 1 -1.1104 12.2604 17.4868 1.13373
150 2 2.2208 10.865 16.0924 2.52813
151 2 2.2208 10.8677 21.6741 2.52885
152 1 -1.1104 12.2603 17.4871 3.92285
153 1 -1.1104 9.4696 14.6955 1.1334
154 1 -1.1104 9.47229 20.277 1.13405
155 2 2.2208 8.07679 18.8828 2.52843
156 1 -1.1104 9.4695 14.6957 3.92254
157 1 -1.1104 9.47218 20.2774 3.92317
158 2 2.2208 8.07546 16.0923 5.31756
159 2 2.2208 8.07817 21.6739 5.31825
160 1 -1.1104 9.47085 17.4863 1.13333
161 1 -1.1104 9.47099 17.4866 3.92321
329 1 -1.1104 9.47239 20.2788 12.2917
324 1 -1.1104 12.259 14.6965 6.712
111 1 -1.1104 9.46954 14.6963 9.50134
326 1 -1.1104 9.4696 14.696 6.71235
165 2 2.2208 8.07547 16.0919 -0.261394
169 1 -1.1104 6.67291 0.740758 6.71119
27 2 2.2208 5.27585 -3.44478 10.8949
174 1 -1.1104 3.88338 0.74077 6.71087
26 1 -1.1104 3.88191 -2.05027 6.71105
173 1 -1.1104 1.09536 3.53184 6.71107
167 1 -1.1104 1.09394 0.740785 6.7112
25 1 -1.1104 1.09241 -2.05028 6.71071
172 1 -1.1104 3.88488 3.53178 6.71137
175 2 2.2208 5.27888 2.13737 10.8952
176 1 -1.1104 1.09239 -2.05034 12.2896
177 1 -1.1104 1.09539 3.53184 12.2899
178 1 -1.1104 1.09243 -2.05031 9.50048
179 1 -1.1104 1.09541 3.53186 9.50079
180 1 -1.1104 1.09395 0.740767 12.29
181 2 2.2208 5.27739 -0.653676 8.10565
182 2 2.2208 5.28034 4.9284 8.10601
183 1 -1.1104 1.09391 0.740792 9.50031
184 1 -1.1104 3.88188 -2.05034 12.2899
185 1 -1.1104 3.8849 3.53181 12.2902
186 2 2.2208 2.48939 2.13738 8.10584
187 1 -1.1104 3.88187 -2.05029 9.50016
188 1 -1.1104 3.88485 3.53183 9.50047
189 2 2.2208 2.48789 -0.653692 10.8951
190 2 2.2208 2.49087 4.92846 10.8954
191 1 -1.1104 3.88339 0.740737 12.2897
192 1 -1.1104 3.8834 0.740771 9.50062
197 1 -1.1104 6.67133 -2.05035 12.2896
194 1 -1.1104 6.67435 3.53181 12.2899
196 1 -1.1104 6.67136 -2.0503 6.71071
198 1 -1.1104 6.67289 0.740744 12.29
207 1 -1.1104 6.67138 -2.05032 9.50046
195 1 -1.1104 6.67286 0.740747 9.50029
323 1 -1.1104 9.47086 17.4869 6.71226
205 2 2.2208 8.06534 -3.44478 8.1055
210 1 -1.1104 9.46087 -2.05033 6.71102
211 1 -1.1104 12.2503 -2.05038 6.7107
193 1 -1.1104 6.67438 3.5318 9.50079
209 1 -1.1104 12.2518 0.740737 6.71118
55 1 -1.1104 9.46387 3.53182 6.71137
212 2 2.2208 10.8578 2.13743 10.8952
213 1 -1.1104 12.2502 -2.05038 12.2895
214 1 -1.1104 12.2533 3.53198 12.2899
215 1 -1.1104 12.2503 -2.05038 9.50044
216 1 -1.1104 12.2533 3.53194 9.5008
217 1 -1.1104 12.2518 0.740799 12.29
218 2 2.2208 10.8563 -0.653731 8.10565
219 1 -1.1104 12.2518 0.740781 9.50028
220 1 -1.1104 9.46081 -2.05037 12.2899
221 1 -1.1104 9.46386 3.53187 12.2902
222 2 2.2208 8.06836 2.13738 8.10582
223 1 -1.1104 9.4608 -2.05032 9.50012
224 1 -1.1104 9.46381 3.53187 9.50047
225 2 2.2208 8.06684 -0.653709 10.8951
226 2 2.2208 8.06984 4.92846 10.8954
227 1 -1.1104 9.46232 0.740755 12.2897
228 1 -1.1104 9.46236 0.740779 9.5006
229 2 2.2208 10.8593 4.92852 8.10601
204 2 2.2208 10.8548 -3.44485 10.8949
321 1 -1.1104 12.2605 17.4877 6.71273
320 2 2.2208 10.8664 18.8846 10.8966
336 2 2.2208 8.06537 -3.44481 2.52662
286 2 2.2208 10.8548 -3.44484 5.31605
289 1 -1.1104 6.68005 14.6959 12.2907
313 1 -1.1104 6.68275 20.2776 9.50228
291 1 -1.1104 6.68142 17.4869 12.2913
233 1 -1.1104 3.88628 6.3228 6.71124
81 1 -1.1104 1.09963 11.9049 6.71193
232 1 -1.1104 3.88908 11.9047 6.71166
84 1 -1.1104 6.67584 6.3228 6.71155
235 1 -1.1104 1.09819 9.1139 6.71146
231 1 -1.1104 1.09684 6.32287 6.71154
236 2 2.2208 5.2818 7.71947 10.8956
237 2 2.2208 5.28461 13.3015 10.896
238 1 -1.1104 1.09824 9.11399 12.2903
239 1 -1.1104 1.09825 9.11398 9.50113
240 1 -1.1104 1.09687 6.32293 12.2904
241 1 -1.1104 1.09964 11.9051 12.2907
242 2 2.2208 5.28319 10.5104 8.1064
243 1 -1.1104 1.09678 6.32292 9.50067
244 1 -1.1104 1.09955 11.905 9.50109
245 1 -1.1104 3.88779 9.11389 12.2905
246 2 2.2208 2.49227 7.71945 8.1062
247 2 2.2208 2.49502 13.3015 8.10663
248 1 -1.1104 3.88771 9.11385 9.50086
249 2 2.2208 2.49369 10.5105 10.8958
250 1 -1.1104 3.88634 6.32287 12.2901
251 1 -1.1104 3.88916 11.9049 12.2905
252 1 -1.1104 3.88633 6.32286 9.50097
253 1 -1.1104 3.88916 11.9048 9.50134
257 1 -1.1104 6.67865 11.9049 9.50105
258 1 -1.1104 6.67875 11.905 12.2908
254 1 -1.1104 6.67588 6.32289 12.2904
256 1 -1.1104 6.67579 6.32285 9.50066
315 2 2.2208 8.07683 18.8835 8.10728
340 2 2.2208 5.27587 -3.44479 -0.262817
106 1 -1.1104 12.2577 11.9053 6.71207
234 1 -1.1104 6.6772 9.11379 6.71145
260 1 -1.1104 6.67728 9.11391 12.2903
255 1 -1.1104 6.67729 9.11388 9.50118
264 1 -1.1104 9.46527 6.32289 6.71123
265 1 -1.1104 9.46824 11.9052 9.50144
266 1 -1.1104 9.46533 6.32297 9.501
267 1 -1.1104 9.46822 11.9052 12.2905
268 1 -1.1104 9.46531 6.32298 12.2901
269 2 2.2208 8.07276 10.5106 10.8958
270 1 -1.1104 9.46672 9.11405 9.50085
271 2 2.2208 8.0741 13.3016 8.10667
272 2 2.2208 8.07127 7.71948 8.10621
273 2 2.2208 10.8608 7.7197 10.8956
274 2 2.2208 10.8636 13.3021 10.8961
275 1 -1.1104 12.2562 9.11437 12.2903
276 1 -1.1104 12.2562 9.11431 9.50121
277 1 -1.1104 12.2548 6.32316 12.2904
278 1 -1.1104 12.2577 11.9057 12.2908
279 2 2.2208 10.8622 10.5108 8.10645
280 1 -1.1104 12.2547 6.32311 9.50068
281 1 -1.1104 12.2576 11.9055 9.50109
282 1 -1.1104 9.46681 9.1141 12.2906
338 2 2.2208 13.6442 -3.44487 2.52659
108 1 -1.1104 12.2617 20.2802 12.2912
314 1 -1.1104 9.46965 14.6964 12.2911
328 1 -1.1104 9.47097 17.4876 12.2909
139 1 -1.1104 3.89305 20.2772 6.71277
290 1 -1.1104 3.89169 17.4865 6.71222
162 1 -1.1104 6.68143 17.4865 6.71256
332 1 -1.1104 12.2604 17.4882 9.50165
140 1 -1.1104 6.6826 20.2773 6.71256
293 1 -1.1104 1.1022 17.4868 6.7124
135 1 -1.1104 1.10327 20.2778 6.71256
288 1 -1.1104 6.67995 14.6957 6.71194
333 1 -1.1104 6.68267 20.2778 12.2912
316 1 -1.1104 6.68133 17.4868 9.50161
295 1 -1.1104 1.10213 17.4871 12.2911
296 2 2.2208 2.49631 16.0925 10.8962
297 2 2.2208 2.49872 21.6744 10.8968
298 1 -1.1104 3.89172 17.4868 12.2909
299 1 -1.1104 3.89298 20.2776 12.2915
300 1 -1.1104 3.89049 14.6958 12.2909
301 1 -1.1104 1.10334 20.278 9.50204
302 1 -1.1104 1.10208 17.4871 9.50161
303 2 2.2208 5.28848 21.674 8.10751
304 1 -1.1104 1.10092 14.6961 9.50154
305 2 2.2208 5.28591 16.0923 8.10692
306 1 -1.1104 1.10319 20.2781 12.2913
307 1 -1.1104 1.10086 14.6961 12.2907
308 2 2.2208 5.28722 18.8834 10.8965
309 1 -1.1104 3.89293 20.2775 9.50191
310 2 2.2208 2.49757 18.8833 8.10716
311 1 -1.1104 3.89179 17.4867 9.50185
312 1 -1.1104 3.89043 14.6958 9.50131
294 1 -1.1104 6.68009 14.6959 9.50166
327 1 -1.1104 12.259 14.697 12.2907
163 1 -1.1104 12.2617 20.2788 6.71266
202 2 2.2208 8.07819 21.6749 10.8969
318 1 -1.1104 9.47226 20.2785 9.50194
170 2 2.2208 13.6571 21.6756 5.31837
203 2 2.2208 13.6442 -3.44489 8.1055
110 2 2.2208 13.6516 10.5105 -0.261877
208 2 2.2208 13.6457 -0.653728 10.8951
344 2 2.2208 13.6458 -0.653784 -0.262695
53 2 2.2208 13.6458 -0.653746 5.31621
206 2 2.2208 13.6472 2.13744 8.10582
50 2 2.2208 13.6487 4.92854 5.3166
51 2 2.2208 13.6473 2.13734 2.52694
86 2 2.2208 13.653 13.3018 2.52786
339 2 2.2208 13.6488 4.92839 -0.262298
261 2 2.2208 13.653 13.3023 8.10673
164 2 2.2208 13.657 21.6744 -0.26079
87 2 2.2208 13.6516 10.5108 5.31704
331 2 2.2208 13.6544 16.0939 10.8963
52 2 2.2208 13.657 21.6773 10.8969
24 2 2.2208 13.6544 16.0926 -0.261368
142 2 2.2208 13.6557 18.8838 2.52848
317 2 2.2208 13.6557 18.885 8.10735
230 2 2.2208 13.6487 4.92866 10.8954
143 2 2.2208 13.6544 16.0932 5.31762
283 2 2.2208 13.6502 7.7198 8.10624
262 2 2.2208 13.6516 10.5111 10.8959
201 2 2.2208 13.6502 7.71957 2.52737
351 2 2.2208 5.27891 2.13731 16.4741
352 1 -1.1104 1.0924 -2.0504 17.8684
353 1 -1.1104 1.09545 3.53176 17.8687
354 1 -1.1104 1.09243 -2.05035 15.0793
355 1 -1.1104 1.09545 3.53182 15.0796
356 1 -1.1104 1.09395 0.740701 17.8689
357 2 2.2208 5.27739 -0.653795 19.2634
358 2 2.2208 5.28041 4.92829 19.2637
359 1 -1.1104 1.09393 0.740737 15.0792
360 1 -1.1104 3.88188 -2.05039 17.8687
361 1 -1.1104 3.88495 3.53172 17.869
362 2 2.2208 2.48944 2.13729 19.2635
363 1 -1.1104 3.88185 -2.05038 15.079
364 1 -1.1104 3.88491 3.53177 15.0793
365 2 2.2208 2.48791 -0.653752 16.4739
366 1 -1.1104 3.88338 0.740673 17.8686
367 1 -1.1104 3.88343 0.740703 15.0795
368 2 2.2208 2.49094 4.92838 16.4743
685 2 2.2208 5.27582 -3.44485 16.4738
690 2 2.2208 2.48943 2.13737 13.6847
372 1 -1.1104 6.67134 -2.05038 15.0793
700 2 2.2208 5.27738 -0.653751 13.6845
582 2 2.2208 2.48636 -3.44486 19.2632
371 1 -1.1104 6.67287 0.740708 15.0791
689 2 2.2208 2.48637 -3.44481 13.6844
374 1 -1.1104 6.67132 -2.0504 17.8684
373 1 -1.1104 6.67289 0.740662 17.8689
379 1 -1.1104 1.09548 3.53174 20.6585
410 2 2.2208 5.28844 21.6742 13.6861
370 1 -1.1104 6.67442 3.53178 15.0796
435 2 2.2208 8.06528 -3.44488 19.2632
686 2 2.2208 13.6442 -3.44491 24.8421
369 1 -1.1104 6.6744 3.53171 17.8687
385 2 2.2208 10.8578 2.13736 16.4741
386 1 -1.1104 12.2502 -2.05041 17.8684
387 1 -1.1104 12.2533 3.53185 17.8687
388 1 -1.1104 12.2502 -2.05039 15.0793
389 1 -1.1104 12.2533 3.53192 15.0796
390 1 -1.1104 12.2518 0.74071 17.8689
391 2 2.2208 10.8563 -0.653792 19.2633
392 2 2.2208 10.8593 4.92839 19.2637
393 1 -1.1104 12.2517 0.740775 15.0791
394 1 -1.1104 9.4608 -2.05042 17.8687
395 1 -1.1104 9.46389 3.53178 17.8691
396 2 2.2208 8.06838 2.13727 19.2635
397 1 -1.1104 9.46077 -2.05038 15.079
398 1 -1.1104 9.46385 3.53182 15.0793
399 2 2.2208 8.06682 -0.653775 16.4739
400 2 2.2208 8.0699 4.92839 16.4743
401 1 -1.1104 9.46232 0.740681 17.8685
402 1 -1.1104 9.46234 0.740715 15.0794
698 2 2.2208 8.06836 2.13737 13.6847
697 2 2.2208 8.06529 -3.44485 13.6844
406 1 -1.1104 12.2533 3.53178 20.6585
678 1 -1.1104 12.2617 20.2775 23.4487
523 1 -1.1104 9.46962 14.6957 20.6588
409 1 -1.1104 9.46386 3.53171 20.6582
407 1 -1.1104 9.46077 -2.05043 20.6578
562 1 -1.1104 12.2518 0.740672 20.658
408 1 -1.1104 12.2502 -2.05044 20.6581
666 1 -1.1104 12.2616 20.2781 20.6595
411 2 2.2208 5.28188 7.71938 16.4744
412 2 2.2208 5.28465 13.3013 16.4748
413 1 -1.1104 1.09835 9.11384 17.8691
414 1 -1.1104 1.09831 9.11396 15.0799
415 1 -1.1104 1.09695 6.32282 17.8692
416 1 -1.1104 1.0997 11.9049 17.8695
417 2 2.2208 5.2833 10.5103 19.264
418 1 -1.1104 1.09689 6.3229 15.0795
419 1 -1.1104 1.09965 11.905 15.0798
420 1 -1.1104 3.88787 9.11375 17.8693
421 2 2.2208 2.4924 7.71934 19.2638
422 2 2.2208 2.49511 13.3012 19.2642
423 1 -1.1104 3.88781 9.11382 15.0796
424 2 2.2208 2.49377 10.5104 16.4746
425 1 -1.1104 3.88641 6.32275 17.8689
426 1 -1.1104 3.88921 11.9047 17.8693
427 1 -1.1104 3.8864 6.32282 15.0798
428 1 -1.1104 3.88921 11.9048 15.0801
692 2 2.2208 8.07135 7.71953 13.685
429 1 -1.1104 6.67877 11.9047 17.8696
441 1 -1.1104 6.67591 6.32274 17.8692
434 1 -1.1104 6.67588 6.32283 15.0795
439 1 -1.1104 3.88784 9.11362 20.6585
691 2 2.2208 10.8593 4.92853 13.6849
442 1 -1.1104 6.67874 11.9049 15.0798
432 1 -1.1104 6.67736 9.11373 17.8691
587 1 -1.1104 1.09969 11.9047 20.6587
694 2 2.2208 5.28038 4.92841 13.6848
693 2 2.2208 2.49233 7.71949 13.685
430 1 -1.1104 6.67735 9.11385 15.08
443 2 2.2208 10.8608 7.71961 16.4745
444 2 2.2208 10.8637 13.3019 16.4748
445 1 -1.1104 12.2563 9.11415 17.8691
446 1 -1.1104 12.2563 9.11429 15.08
447 1 -1.1104 12.2548 6.32299 17.8693
448 1 -1.1104 12.2577 11.9053 17.8696
449 2 2.2208 10.8623 10.5105 19.2641
450 1 -1.1104 12.2548 6.32309 15.0795
451 1 -1.1104 12.2577 11.9055 15.0798
452 1 -1.1104 9.46685 9.11389 17.8694
453 2 2.2208 8.07136 7.71932 19.2639
454 2 2.2208 8.07419 13.3013 19.2642
455 1 -1.1104 9.46682 9.11404 15.0796
456 2 2.2208 8.0728 10.5105 16.4746
457 1 -1.1104 9.46536 6.32284 17.8689
458 1 -1.1104 9.46827 11.9049 17.8692
459 1 -1.1104 9.46539 6.32294 15.0798
460 1 -1.1104 9.46827 11.9052 15.0802
467 1 -1.1104 6.67588 6.32264 20.6583
470 1 -1.1104 12.2548 6.32288 20.6584
465 1 -1.1104 9.4668 9.11375 20.6585
462 1 -1.1104 12.2563 9.11396 20.6589
695 2 2.2208 13.6442 -3.44492 13.6843
687 2 2.2208 10.8547 -3.44489 16.4737
556 2 2.2208 10.8623 10.5109 13.6852
440 2 2.2208 13.6442 -3.44491 19.2632
466 2 2.2208 8.07419 13.3017 13.6854
558 2 2.2208 5.28326 10.5105 13.6852
472 2 2.2208 2.49752 18.8834 13.6858
670 1 -1.1104 9.47089 17.4862 23.4486
473 2 2.2208 5.28718 18.8831 16.4752
474 1 -1.1104 1.10094 14.6958 17.8695
475 1 -1.1104 1.10321 20.2775 17.87
476 1 -1.1104 1.10092 14.696 15.0803
477 1 -1.1104 1.10318 20.2779 15.0807
478 1 -1.1104 1.10212 17.4867 17.8698
479 2 2.2208 5.28594 16.092 19.2644
480 2 2.2208 5.28835 21.6733 19.2649
481 1 -1.1104 1.10211 17.487 15.0803
482 1 -1.1104 3.89052 14.6956 17.8697
483 1 -1.1104 3.89286 20.277 17.8701
484 2 2.2208 2.49752 18.8829 19.2646
485 1 -1.1104 3.8905 14.6957 15.08
486 1 -1.1104 3.89293 20.2774 15.0805
487 2 2.2208 2.49634 16.0923 16.475
488 2 2.2208 2.4986 21.6739 16.4754
489 1 -1.1104 3.89176 17.4864 17.8697
490 1 -1.1104 3.89176 17.4866 15.0805
493 1 -1.1104 6.68139 17.4864 17.87
559 1 -1.1104 9.46953 14.6954 26.2379
497 1 -1.1104 3.89051 14.6954 20.6589
672 1 -1.1104 12.259 14.6957 26.2383
492 1 -1.1104 6.68266 20.2772 17.8699
501 1 -1.1104 6.68012 14.6958 15.0804
491 1 -1.1104 6.68267 20.2776 15.0809
496 1 -1.1104 6.68142 17.4868 15.0803
644 1 -1.1104 1.10216 17.4864 20.6591
498 1 -1.1104 1.10097 14.6956 20.6591
494 1 -1.1104 3.8929 20.2767 20.6594
641 1 -1.1104 3.89174 17.4861 20.6594
381 2 2.2208 5.28594 16.0924 13.6856
526 2 2.2208 10.8677 21.6762 13.6861
495 1 -1.1104 6.68012 14.6956 17.8694
503 2 2.2208 10.8664 18.8843 16.4752
504 1 -1.1104 12.2591 14.6965 17.8694
505 1 -1.1104 12.2618 20.2792 17.8696
506 1 -1.1104 12.2591 14.6969 15.0804
507 1 -1.1104 12.2617 20.28 15.0808
508 1 -1.1104 12.2604 17.4878 17.8699
509 2 2.2208 10.865 16.0927 19.2644
510 2 2.2208 10.8676 21.6747 19.2647
511 1 -1.1104 12.2604 17.4883 15.0802
512 1 -1.1104 9.46965 14.696 17.8698
513 1 -1.1104 9.47224 20.2779 17.8702
514 2 2.2208 8.0768 18.883 19.2646
515 1 -1.1104 9.46967 14.6963 15.08
516 1 -1.1104 9.47236 20.2786 15.0804
517 2 2.2208 8.07554 16.0925 16.475
518 2 2.2208 8.07811 21.6744 16.4754
519 1 -1.1104 9.47101 17.487 17.8696
520 1 -1.1104 9.47099 17.4874 15.0806
524 2 2.2208 10.865 16.0933 13.6857
525 2 2.2208 8.07685 18.8838 13.6859
673 1 -1.1104 6.68008 14.6954 20.6592
699 2 2.2208 10.8563 -0.653729 13.6845
502 1 -1.1104 12.2591 14.6961 20.6592
500 1 -1.1104 9.47091 17.4865 20.6594
382 2 2.2208 10.8547 -3.44488 22.0526
383 1 -1.1104 6.67137 -2.05043 20.6581
636 2 2.2208 8.06533 -3.44485 24.8421
671 1 -1.1104 9.47092 17.4861 26.2385
583 2 2.2208 5.27583 -3.44486 22.0526
376 1 -1.1104 3.88343 0.740638 20.6583
531 1 -1.1104 1.09393 0.740707 20.658
377 1 -1.1104 3.88187 -2.05041 20.6578
378 1 -1.1104 1.09243 -2.05037 20.6582
375 1 -1.1104 3.88493 3.53167 20.6582
532 2 2.2208 5.27892 2.13722 22.053
533 1 -1.1104 1.09241 -2.05037 23.4473
534 1 -1.1104 1.09544 3.53171 23.4476
535 1 -1.1104 1.09244 -2.05036 26.2371
536 1 -1.1104 1.09547 3.5317 26.2374
537 1 -1.1104 1.09396 0.740684 23.4478
538 2 2.2208 5.2774 -0.653794 24.8422
539 1 -1.1104 1.09393 0.74068 26.2369
540 1 -1.1104 3.88191 -2.0504 23.4476
541 1 -1.1104 3.88495 3.53162 23.4479
542 2 2.2208 2.48943 2.13725 24.8424
543 1 -1.1104 3.88188 -2.05037 26.2367
544 1 -1.1104 3.88489 3.53164 26.2371
545 2 2.2208 2.48792 -0.653782 22.0528
546 1 -1.1104 3.88339 0.740624 23.4474
547 1 -1.1104 3.88343 0.740644 26.2372
548 2 2.2208 5.28039 4.92821 24.8426
549 2 2.2208 2.49094 4.92828 22.0531
551 1 -1.1104 6.67289 0.740616 23.4478
560 1 -1.1104 6.67437 3.53161 23.4476
553 1 -1.1104 6.67139 -2.05039 26.237
584 2 2.2208 2.4864 -3.44481 24.8421
528 1 -1.1104 6.67287 0.740623 20.658
552 1 -1.1104 6.67288 0.740622 26.2369
550 1 -1.1104 6.67441 3.53162 26.2374
663 1 -1.1104 6.68007 14.6952 26.2382
681 2 2.2208 8.07549 16.0919 22.0539
665 1 -1.1104 12.2603 17.4866 26.2381
664 1 -1.1104 6.68004 14.6952 23.4484
669 1 -1.1104 12.2604 17.4867 23.4489
554 1 -1.1104 6.67133 -2.05043 23.4473
380 1 -1.1104 6.67443 3.53164 20.6585
471 1 -1.1104 12.259 14.6958 23.4484
638 1 -1.1104 6.68137 17.4861 20.6591
405 1 -1.1104 9.46236 0.740648 20.6583
564 2 2.2208 10.8578 2.13727 22.053
565 1 -1.1104 12.2502 -2.05044 23.4473
566 1 -1.1104 12.2533 3.53174 23.4476
567 1 -1.1104 12.2503 -2.05044 26.237
568 1 -1.1104 12.2533 3.53171 26.2374
569 1 -1.1104 12.2518 0.740653 23.4477
570 2 2.2208 10.8563 -0.653824 24.8422
571 1 -1.1104 12.2518 0.740629 26.2369
572 1 -1.1104 9.46082 -2.05042 23.4476
573 1 -1.1104 9.46388 3.53165 23.4479
574 2 2.2208 8.06838 2.13722 24.8424
575 1 -1.1104 9.4608 -2.05043 26.2367
576 1 -1.1104 9.46385 3.53165 26.2371
577 2 2.2208 8.06684 -0.65381 22.0528
578 1 -1.1104 9.46233 0.740615 23.4474
579 1 -1.1104 9.46238 0.740617 26.2372
580 2 2.2208 10.8593 4.9283 24.8426
581 2 2.2208 8.06989 4.92824 22.0532
431 2 2.2208 2.49507 13.3015 13.6854
586 1 -1.1104 1.09692 6.32277 20.6583
437 1 -1.1104 3.88921 11.9045 20.659
637 1 -1.1104 12.2604 17.4872 20.6589
433 1 -1.1104 3.88642 6.32267 20.6586
436 1 -1.1104 1.09837 9.11377 20.6588
588 2 2.2208 5.28187 7.7192 22.0533
589 2 2.2208 5.28462 13.301 22.0537
590 1 -1.1104 1.09831 9.11368 23.448
591 1 -1.1104 1.09832 9.11366 26.2377
592 1 -1.1104 1.09693 6.3227 23.4481
593 1 -1.1104 1.09971 11.9046 23.4484
594 2 2.2208 5.28326 10.5101 24.843
595 1 -1.1104 1.09688 6.3227 26.2373
596 1 -1.1104 1.09965 11.9046 26.2377
597 1 -1.1104 3.88784 9.11357 23.4483
598 2 2.2208 2.49236 7.71923 24.8428
599 2 2.2208 2.4951 13.301 24.8432
600 1 -1.1104 3.88777 9.11355 26.2374
601 2 2.2208 2.49378 10.5102 22.0535
602 1 -1.1104 3.88637 6.32261 23.4478
603 1 -1.1104 3.88919 11.9044 23.4482
604 1 -1.1104 3.8864 6.32261 26.2375
605 1 -1.1104 3.88921 11.9044 26.2379
610 1 -1.1104 6.67866 11.9044 26.2377
684 2 2.2208 8.07675 18.8825 24.8437
522 1 -1.1104 9.47227 20.2772 20.6592
679 1 -1.1104 9.47215 20.2768 26.2384
585 1 -1.1104 6.67872 11.9046 20.6587
468 1 -1.1104 12.2577 11.905 20.6587
469 1 -1.1104 9.46823 11.9047 20.659
614 1 -1.1104 6.67583 6.3226 26.2373
609 1 -1.1104 6.67732 9.11352 26.2378
438 1 -1.1104 6.67735 9.11362 20.6588
606 1 -1.1104 6.67589 6.32258 23.4481
608 1 -1.1104 6.6773 9.11354 23.448
607 1 -1.1104 6.67873 11.9044 23.4485
613 1 -1.1104 9.46537 6.32274 20.6587
618 1 -1.1104 9.46681 9.11364 23.4483
619 1 -1.1104 12.2576 11.9048 26.2377
620 1 -1.1104 12.2548 6.32278 26.2373
621 2 2.2208 10.8622 10.5103 24.843
622 1 -1.1104 12.2577 11.9049 23.4485
623 1 -1.1104 12.2548 6.3228 23.4481
624 1 -1.1104 12.2562 9.1138 26.2378
625 1 -1.1104 12.2562 9.11384 23.448
626 1 -1.1104 9.46822 11.9046 26.238
627 1 -1.1104 9.46536 6.32265 26.2376
628 1 -1.1104 9.46821 11.9046 23.4482
629 1 -1.1104 9.46534 6.32266 23.4478
630 2 2.2208 8.07277 10.5102 22.0535
631 1 -1.1104 9.46676 9.11362 26.2375
632 2 2.2208 8.07415 13.301 24.8432
633 2 2.2208 8.07132 7.71919 24.8428
634 2 2.2208 10.8608 7.71937 22.0533
635 2 2.2208 10.8636 13.3014 22.0537
667 2 2.2208 10.8676 21.6736 24.8439
677 2 2.2208 10.8663 18.8832 22.0541
640 1 -1.1104 6.6813 17.4859 26.2382
530 1 -1.1104 9.47218 20.2768 23.4492
674 2 2.2208 10.865 16.0921 24.8434
642 1 -1.1104 6.68135 17.4859 23.4489
683 1 -1.1104 6.68259 20.2767 20.6597
643 1 -1.1104 1.10325 20.2772 20.6595
682 1 -1.1104 6.68264 20.2764 26.2387
645 2 2.2208 2.49869 21.6732 22.0544
646 1 -1.1104 3.89174 17.4859 23.4486
647 1 -1.1104 1.10221 17.4863 23.4488
648 1 -1.1104 3.89047 14.6952 26.2379
649 1 -1.1104 3.8918 17.4859 26.2384
650 2 2.2208 2.49761 18.8825 24.8437
651 1 -1.1104 3.89292 20.2765 26.2385
652 2 2.2208 5.28717 18.8824 22.0541
653 1 -1.1104 1.10096 14.6955 23.4484
654 1 -1.1104 1.10332 20.2769 23.4489
655 2 2.2208 5.28592 16.0917 24.8434
656 2 2.2208 5.28839 21.6728 24.844
657 1 -1.1104 1.10101 14.6954 26.2381
658 1 -1.1104 1.10218 17.4862 26.2382
659 1 -1.1104 1.10344 20.277 26.2386
660 1 -1.1104 3.89052 14.6952 23.4486
661 1 -1.1104 3.89296 20.2765 23.4491
662 2 2.2208 2.49636 16.0919 22.0539
612 2 2.2208 8.07801 21.6732 22.0544
680 1 -1.1104 12.2617 20.2774 26.2388
675 1 -1.1104 9.46959 14.6954 23.4487
639 1 -1.1104 6.68256 20.2764 23.4489
555 2 2.2208 13.657 21.6748 22.0542
615 2 2.2208 13.6517 10.5106 22.0535
384 2 2.2208 13.6457 -0.65374 16.4739
561 2 2.2208 13.6457 -0.653784 22.0528
557 2 2.2208 13.6473 2.13729 24.8424
563 2 2.2208 13.6488 4.92843 22.0532
696 2 2.2208 13.6472 2.13746 13.6847
403 2 2.2208 13.6487 4.92859 16.4743
404 2 2.2208 13.6472 2.13736 19.2635
527 2 2.2208 13.6531 13.3025 13.6854
463 2 2.2208 13.6531 13.302 19.2642
499 2 2.2208 13.6544 16.0936 16.475
611 2 2.2208 13.657 21.6769 16.4752
616 2 2.2208 13.6502 7.71947 24.8428
529 2 2.2208 13.6557 18.8855 13.6859
464 2 2.2208 13.6517 10.511 16.4746
688 2 2.2208 13.6502 7.71987 13.685
521 2 2.2208 13.6557 18.8845 19.2645
676 2 2.2208 13.6544 16.0928 22.0539
461 2 2.2208 13.6502 7.71964 19.2639
617 2 2.2208 13.653 13.3016 24.8432
668 2 2.2208 13.6557 18.8835 24.8436
701 2 2.2208 5.28976 24.4642 5.31848
702 2 2.2208 5.29254 30.0448 5.31907
703 1 -1.1104 1.10561 25.8585 1.13436
704 1 -1.1104 1.10572 25.8589 3.92383
705 1 -1.1104 1.10464 23.0678 1.1341
706 1 -1.1104 1.10699 28.6491 1.13473
707 2 2.2208 5.29104 27.2541 2.5295
708 1 -1.1104 1.10446 23.0682 3.92346
709 1 -1.1104 1.10669 28.6495 3.92411
710 1 -1.1104 3.89547 25.8577 1.13454
711 2 2.2208 2.50003 24.4642 2.52901
712 2 2.2208 2.50267 30.0452 2.52975
713 1 -1.1104 3.89531 25.8579 3.92379
714 2 2.2208 2.50121 27.2551 5.31867
715 1 -1.1104 3.89411 23.0672 1.134
716 1 -1.1104 3.89649 28.6479 1.13476
717 1 -1.1104 3.89429 23.0675 3.92366
718 1 -1.1104 3.89668 28.6482 3.92426
722 1 -1.1104 6.68656 28.6475 1.13512
730 1 -1.1104 6.68386 23.0674 3.92347
1035 2 2.2208 2.50122 27.2543 -0.26
729 2 2.2208 5.29224 30.0439 -0.259256
726 2 2.2208 5.28966 24.4634 -0.260377
983 2 2.2208 13.6599 38.4514 10.8964
873 1 -1.1104 3.89412 23.0678 6.71286
725 1 -1.1104 1.10453 23.0686 6.71292
875 1 -1.1104 1.10544 25.8593 6.71319
871 1 -1.1104 1.10667 28.6498 6.71342
866 2 2.2208 13.6621 41.2002 2.51961
721 1 -1.1104 6.68645 28.6477 3.92413
719 1 -1.1104 6.68395 23.0671 1.13431
723 1 -1.1104 6.68505 25.8573 1.13437
720 1 -1.1104 6.68533 25.8577 3.92417
732 2 2.2208 10.8691 24.4657 5.31878
733 2 2.2208 10.872 30.0475 5.31989
734 1 -1.1104 12.2643 25.8589 1.13438
735 1 -1.1104 12.2648 25.8599 3.92463
736 1 -1.1104 12.2632 23.0684 1.13447
737 1 -1.1104 12.266 28.6494 1.13543
738 2 2.2208 10.8704 27.2554 2.52982
739 1 -1.1104 12.263 23.069 3.92359
740 1 -1.1104 12.2658 28.6505 3.92456
741 1 -1.1104 9.475 25.8579 1.13486
742 2 2.2208 8.07944 24.464 2.52919
743 2 2.2208 8.08223 30.0447 2.53022
744 1 -1.1104 9.47488 25.8584 3.92391
745 2 2.2208 8.08089 27.2551 5.31901
746 1 -1.1104 9.47345 23.0675 1.13399
747 1 -1.1104 9.47607 28.648 1.13482
748 1 -1.1104 9.47375 23.068 3.92401
749 1 -1.1104 9.47661 28.6488 3.92497
899 1 -1.1104 12.2664 28.6526 6.71496
757 2 2.2208 10.8715 30.0448 -0.259161
756 2 2.2208 8.08062 27.2538 -0.259812
843 2 2.2208 10.8689 24.4642 -0.26034
1031 1 -1.1104 6.69939 42.606 12.2986
784 2 2.2208 2.50948 38.4171 -0.257518
758 2 2.2208 5.29657 35.6252 5.31981
759 1 -1.1104 1.10805 31.4396 1.13499
760 1 -1.1104 1.11173 37.0211 1.1353
761 1 -1.1104 1.10814 31.44 3.92434
762 1 -1.1104 1.11141 37.0212 3.92446
763 1 -1.1104 1.1099 34.2303 1.1354
764 2 2.2208 5.29418 32.8349 2.53052
765 2 2.2208 5.29877 38.4161 2.53107
766 1 -1.1104 1.10956 34.2305 3.92439
767 1 -1.1104 3.89805 31.4383 1.13531
768 1 -1.1104 3.90148 37.0191 1.13602
769 2 2.2208 2.50664 35.6264 2.53048
770 1 -1.1104 3.89788 31.4382 3.92436
771 1 -1.1104 3.90125 37.018 3.92436
772 2 2.2208 2.50438 32.836 5.31914
773 2 2.2208 2.51019 38.4167 5.31881
774 1 -1.1104 3.8994 34.2284 1.13548
775 1 -1.1104 3.89955 34.2283 3.92485
781 2 2.2208 5.29589 35.6249 -0.257597
780 2 2.2208 2.50422 32.8352 -0.258896
779 1 -1.1104 6.6896 34.227 3.92468
786 1 -1.1104 6.68766 31.4374 1.13525
731 2 2.2208 13.6612 30.0478 2.5305
931 1 -1.1104 1.11172 37.0201 6.71325
929 1 -1.1104 1.10777 31.4403 6.71367
846 2 2.2208 8.094 44.0054 -0.262427
778 1 -1.1104 6.68958 34.2277 1.13616
787 1 -1.1104 6.68813 31.4376 3.9249
777 1 -1.1104 6.69124 37.0163 3.92541
776 1 -1.1104 6.69125 37.0177 1.13576
791 2 2.2208 10.8757 35.6295 5.32131
792 1 -1.1104 12.2671 31.4396 1.13532
793 1 -1.1104 12.2706 37.0195 1.13629
794 1 -1.1104 12.2681 31.4411 3.926
795 1 -1.1104 12.2725 37.0206 3.92658
796 1 -1.1104 12.2694 34.2298 1.13647