ITEM: TIMESTEP
305
ITEM: NUMBER OF ATOMS
17660
ITEM: BOX BOUNDS pp pp pp
-2.7717828229332220e-01 2.7617178282293317e+01
-3.4472205766305355e+00 3.3152722057663055e+02
-2.7717827830221448e-01 2.7617178278302212e+01
ITEM: ATOMS id type q x y z
1 2 2.2208 5.28091 2.13822 5.31438
2 1 -1.1104 1.09257 -2.05068 1.12979
3 1 -1.1104 1.09812 3.53222 1.12991
4 1 -1.1104 1.09258 -2.05059 3.91984
5 1 -1.1104 1.09816 3.53236 3.91995
6 1 -1.1104 1.09535 0.740778 1.13044
7 2 2.2208 5.27814 -0.653407 2.52487
8 1 -1.1104 1.09531 0.740883 3.91931
9 1 -1.1104 3.88205 -2.05071 1.13039
10 1 -1.1104 3.88757 3.53219 1.13054
11 2 2.2208 2.49146 2.13804 2.52491
12 1 -1.1104 3.882 -2.05061 3.91926
13 1 -1.1104 3.88756 3.53231 3.91938
14 2 2.2208 2.48866 -0.653285 5.3143
15 2 2.2208 2.49428 4.92969 5.3144
16 1 -1.1104 3.88477 0.740734 1.12987
17 1 -1.1104 3.8848 0.740843 3.91992
18 2 2.2208 5.28371 4.92954 2.52496
23 1 -1.1104 1.09812 3.53252 6.70879
28 1 -1.1104 1.09253 -2.05045 6.7087
29 1 -1.1104 6.67424 0.740786 1.13052
32 1 -1.1104 6.67702 3.53254 6.70881
22 1 -1.1104 3.8876 3.5325 6.70942
33 1 -1.1104 6.67145 -2.05046 6.7087
21 1 -1.1104 3.88203 -2.05045 6.7093
27 1 -1.1104 3.88476 0.741019 6.70874
26 1 -1.1104 1.09535 0.741044 6.70935
30 1 -1.1104 6.6715 -2.05057 3.91986
25 1 -1.1104 6.677 3.53225 1.12993
20 1 -1.1104 6.67421 0.740901 3.91936
55 1 -1.1104 6.67423 0.741048 6.70942
110 2 2.2208 13.6606 13.3043 2.52505
19 1 -1.1104 6.67704 3.53238 3.92001
31 1 -1.1104 6.67146 -2.05069 1.1298
34 2 2.2208 10.8598 2.13845 5.31439
35 1 -1.1104 12.2504 -2.05049 1.12984
36 1 -1.1104 12.2559 3.53251 1.12989
37 1 -1.1104 12.2503 -2.05036 3.9199
38 1 -1.1104 12.2559 3.53267 3.91999
39 1 -1.1104 12.2531 0.741014 1.13048
40 2 2.2208 10.857 -0.653209 2.52489
41 2 2.2208 10.8626 4.92979 2.52494
42 1 -1.1104 12.253 0.741168 3.91934
43 1 -1.1104 9.46095 -2.05059 1.13042
44 1 -1.1104 9.46647 3.53237 1.13054
45 2 2.2208 8.07034 2.13816 2.52495
46 1 -1.1104 9.46089 -2.05048 3.91929
47 1 -1.1104 9.46645 3.53251 3.91935
48 2 2.2208 8.06757 -0.653193 5.31434
50 1 -1.1104 9.46364 0.740889 1.12989
51 1 -1.1104 9.46368 0.741023 3.91997
49 2 2.2208 8.0732 4.9298 5.31441
56 1 -1.1104 9.46362 0.74116 6.7088
57 1 -1.1104 9.46093 -2.05034 6.70935
150 2 2.2208 13.6577 10.5137 10.8933
58 1 -1.1104 9.46651 3.53267 6.70944
59 1 -1.1104 12.2559 3.53285 6.70882
322 2 2.2208 8.08439 16.0962 10.8934
257 2 2.2208 10.8797 21.6797 8.10416
52 1 -1.1104 12.2503 -2.05028 6.70876
54 1 -1.1104 12.2531 0.741322 6.70943
260 1 -1.1104 12.273 20.2833 9.4993
60 2 2.2208 5.28659 7.72113 5.31443
61 2 2.2208 5.29215 13.3039 5.31456
62 1 -1.1104 1.10372 9.11507 1.12997
63 1 -1.1104 1.10376 9.11527 3.92
64 1 -1.1104 1.10095 6.32368 1.13054
65 1 -1.1104 1.10652 11.9064 1.13056
66 2 2.2208 5.28938 10.5123 2.52502
67 1 -1.1104 1.10093 6.32385 3.91941
68 1 -1.1104 1.10648 11.9066 3.91949
69 1 -1.1104 3.89321 9.11501 1.13057
70 2 2.2208 2.49709 7.72097 2.52499
71 2 2.2208 2.50266 13.3037 2.52506
72 1 -1.1104 3.89322 9.11515 3.91944
73 2 2.2208 2.49987 10.5126 5.31447
74 1 -1.1104 3.89038 6.32362 1.12994
75 1 -1.1104 3.89599 11.9063 1.13001
76 1 -1.1104 3.89042 6.32376 3.92001
77 1 -1.1104 3.89606 11.9065 3.92009
85 1 -1.1104 1.10099 6.32398 6.70941
79 1 -1.1104 6.68549 11.9066 3.91946
89 1 -1.1104 1.10646 11.9069 6.70949
88 1 -1.1104 3.89594 11.9068 6.70894
82 1 -1.1104 3.89325 9.11538 6.70947
84 1 -1.1104 1.10371 9.11544 6.70887
83 1 -1.1104 3.89043 6.32394 6.70883
313 1 -1.1104 12.2671 14.7 12.2877
80 1 -1.1104 6.68266 9.11507 1.12993
81 1 -1.1104 6.68277 9.11522 3.92002
87 1 -1.1104 6.67985 6.32369 1.13055
86 1 -1.1104 6.67995 6.32402 6.70943
317 1 -1.1104 9.48354 20.2828 12.2885
78 1 -1.1104 6.68554 11.9064 1.1306
90 1 -1.1104 6.67985 6.32382 3.91936
92 2 2.2208 10.8655 7.72145 5.31445
93 2 2.2208 10.8712 13.3043 5.31455
94 1 -1.1104 12.2616 9.11543 1.12993
95 1 -1.1104 12.2617 9.11564 3.92009
96 1 -1.1104 12.2588 6.32401 1.13053
97 1 -1.1104 12.2645 11.9069 1.1306
98 2 2.2208 10.8683 10.5127 2.52502
99 1 -1.1104 12.2588 6.32417 3.91937
100 1 -1.1104 12.2645 11.9071 3.91945
101 1 -1.1104 9.47217 9.11525 1.13058
102 2 2.2208 8.07603 7.72107 2.52496
103 2 2.2208 8.08166 13.3038 2.52509
104 1 -1.1104 9.47219 9.11538 3.91941
105 2 2.2208 8.07888 10.5127 5.31447
106 1 -1.1104 9.46931 6.32382 1.12991
107 1 -1.1104 9.47499 11.9066 1.12998
108 1 -1.1104 9.46936 6.32398 3.92004
109 1 -1.1104 9.47507 11.9068 3.92014
113 1 -1.1104 9.47225 9.11567 6.70952
116 1 -1.1104 12.2588 6.32438 6.70947
259 1 -1.1104 9.47501 11.9071 6.70895
112 1 -1.1104 12.2645 11.9074 6.70959
231 1 -1.1104 6.6827 9.11542 6.70886
115 1 -1.1104 6.68557 11.9068 6.70955
111 1 -1.1104 12.2616 9.11591 6.7089
117 1 -1.1104 9.46935 6.32417 6.70884
320 2 2.2208 10.8767 18.8887 10.8934
118 2 2.2208 5.2977 18.8864 5.31464
119 1 -1.1104 1.10922 14.6977 1.13005
120 1 -1.1104 1.11461 20.2799 1.13008
121 1 -1.1104 1.10928 14.6979 3.92008
122 1 -1.1104 1.11467 20.2803 3.92012
123 1 -1.1104 1.11196 17.4888 1.13058
124 2 2.2208 5.29493 16.0949 2.52515
125 2 2.2208 5.30057 21.6769 2.5252
126 1 -1.1104 1.11183 17.4892 3.91958
127 1 -1.1104 3.89877 14.6975 1.13065
128 1 -1.1104 3.90429 20.2797 1.1307
129 2 2.2208 2.5081 18.886 2.52514
130 1 -1.1104 3.89874 14.6978 3.91956
131 1 -1.1104 3.90421 20.28 3.91962
132 2 2.2208 2.50532 16.0952 5.31458
133 2 2.2208 2.5109 21.6775 5.31462
134 1 -1.1104 3.90146 17.4887 1.1301
135 1 -1.1104 3.9015 17.4889 3.92018
144 1 -1.1104 3.9043 20.2805 6.70966
151 1 -1.1104 6.69396 20.28 3.92031
140 1 -1.1104 3.9014 17.4894 6.70902
147 1 -1.1104 3.89873 14.6981 6.70959
142 1 -1.1104 1.11448 20.2808 6.70907
141 1 -1.1104 1.11188 17.4896 6.70953
149 1 -1.1104 6.69384 20.2806 6.70908
143 1 -1.1104 6.69112 17.4894 6.7097
230 2 2.2208 8.06485 -3.44481 2.52477
148 1 -1.1104 1.1091 14.6983 6.70898
146 1 -1.1104 6.68823 14.6982 6.709
232 2 2.2208 10.8543 -3.4446 5.31427
139 1 -1.1104 6.69383 20.2797 1.13009
136 1 -1.1104 6.69101 17.489 3.9196
145 1 -1.1104 6.68836 14.6978 3.92019
138 1 -1.1104 6.68825 14.6976 1.13004
323 1 -1.1104 9.4836 20.2813 6.70987
137 1 -1.1104 6.69109 17.4887 1.13074
156 2 2.2208 10.8768 18.8872 5.3147
157 1 -1.1104 12.2673 14.6982 1.13
158 1 -1.1104 12.2728 20.2806 1.12999
159 1 -1.1104 12.2674 14.6985 3.92019
160 1 -1.1104 12.273 20.2812 3.92036
161 1 -1.1104 12.2701 17.4895 1.13069
162 2 2.2208 10.8739 16.0954 2.52514
163 2 2.2208 10.8796 21.6778 2.52521
164 1 -1.1104 12.27 17.4898 3.91958
165 1 -1.1104 9.47781 14.6979 1.13068
166 1 -1.1104 9.48344 20.2801 1.13075
167 2 2.2208 8.08726 18.8862 2.5252
168 1 -1.1104 9.4778 14.6981 3.91954
169 1 -1.1104 9.48341 20.2805 3.9196
170 2 2.2208 8.08445 16.0954 5.31463
171 2 2.2208 8.09018 21.6778 5.31473
172 1 -1.1104 9.48057 17.489 1.13006
173 1 -1.1104 9.48066 17.4894 3.92028
174 1 -1.1104 9.47786 14.6985 6.70967
152 1 -1.1104 9.48055 17.4899 6.70905
324 1 -1.1104 12.2672 14.699 6.70899
175 1 -1.1104 12.2701 17.4905 6.7098
153 1 -1.1104 12.2728 20.2822 6.70913
289 2 2.2208 13.6661 18.8871 2.52515
255 2 2.2208 2.48596 -3.44486 2.52476
253 2 2.2208 13.6437 -3.44453 8.10371
229 2 2.2208 13.6437 -3.44464 2.52483
177 2 2.2208 5.28095 2.13846 10.8932
178 1 -1.1104 1.09255 -2.05031 12.2875
179 1 -1.1104 1.09811 3.53275 12.2876
180 1 -1.1104 1.09257 -2.05036 9.49872
181 1 -1.1104 1.09814 3.53266 9.49881
182 1 -1.1104 1.09534 0.741225 12.2882
183 2 2.2208 5.27815 -0.653134 8.10375
184 2 2.2208 5.28376 4.92986 8.10382
185 1 -1.1104 1.09529 0.741155 9.49818
186 1 -1.1104 3.88205 -2.05028 12.2881
187 1 -1.1104 3.88761 3.53269 12.2882
188 2 2.2208 2.49147 2.13836 8.10379
189 1 -1.1104 3.88202 -2.05034 9.49812
190 1 -1.1104 3.88757 3.53262 9.49822
191 2 2.2208 2.48868 -0.653044 10.8932
192 2 2.2208 2.49425 4.92995 10.8932
193 1 -1.1104 3.88482 0.741206 12.2876
194 1 -1.1104 3.88481 0.741131 9.49878
195 1 -1.1104 6.67154 -2.05031 9.49872
201 1 -1.1104 6.6715 -2.05027 12.2876
200 1 -1.1104 6.67706 3.53277 12.2876
197 1 -1.1104 6.67425 0.741196 9.49823
205 1 -1.1104 6.67433 0.741244 12.2882
314 1 -1.1104 9.47772 14.6993 12.2884
318 1 -1.1104 12.2729 20.2843 12.2876
321 1 -1.1104 9.48066 17.4906 9.49916
154 2 2.2208 13.6633 16.0962 5.31461
226 2 2.2208 10.8543 -3.44453 10.8931
225 2 2.2208 5.27542 -3.44454 10.8931
196 1 -1.1104 6.67707 3.5327 9.49886
207 2 2.2208 10.8599 2.13864 10.8933
208 1 -1.1104 12.2504 -2.05026 12.2876
209 1 -1.1104 12.256 3.53301 12.2877
210 1 -1.1104 12.2504 -2.05021 9.49876
211 1 -1.1104 12.256 3.53298 9.49891
212 1 -1.1104 12.2532 0.74135 12.2883
213 2 2.2208 10.857 -0.652973 8.1038
214 1 -1.1104 12.2531 0.741374 9.49825
215 1 -1.1104 9.46099 -2.05025 12.2882
216 1 -1.1104 9.46653 3.53289 12.2883
217 2 2.2208 8.07037 2.13846 8.10383
218 1 -1.1104 9.46095 -2.05029 9.49818
219 1 -1.1104 9.46653 3.53281 9.49822
220 2 2.2208 8.06764 -0.653006 10.8932
221 2 2.2208 8.07321 4.93008 10.8933
222 1 -1.1104 9.46377 0.741314 12.2876
223 1 -1.1104 9.46373 0.741274 9.49886
224 2 2.2208 10.8627 4.93011 8.10387
199 2 2.2208 2.48592 -3.44463 8.10367
254 2 2.2208 5.27541 -3.44474 5.31424
198 2 2.2208 8.06487 -3.44459 8.10368
233 2 2.2208 5.28652 7.72145 10.8933
234 2 2.2208 5.29206 13.3044 10.8933
235 1 -1.1104 1.10359 9.11573 12.2877
236 1 -1.1104 1.1037 9.11563 9.49887
237 1 -1.1104 1.10088 6.32422 12.2882
238 1 -1.1104 1.10629 11.9072 12.2882
239 2 2.2208 5.28935 10.5128 8.10389
240 1 -1.1104 1.10092 6.32418 9.49824
241 1 -1.1104 1.10635 11.9071 9.49835
242 1 -1.1104 3.89312 9.11564 12.2883
243 2 2.2208 2.49709 7.72132 8.10384
244 2 2.2208 2.50254 13.3042 8.10394
245 1 -1.1104 3.89318 9.11558 9.49828
246 2 2.2208 2.49977 10.5129 10.8933
247 1 -1.1104 3.89037 6.32417 12.2876
248 1 -1.1104 3.89585 11.9071 12.2877
249 1 -1.1104 3.89043 6.3241 9.49884
250 1 -1.1104 3.89594 11.907 9.49892
265 1 -1.1104 6.68261 9.11579 12.2877
264 1 -1.1104 6.67988 6.32418 9.49824
266 2 2.2208 13.6549 7.72185 8.10389
262 1 -1.1104 6.68273 9.11564 9.49892
252 1 -1.1104 6.68541 11.9073 12.2883
263 1 -1.1104 6.67987 6.32429 12.2883
292 1 -1.1104 6.69106 17.4902 12.2884
319 2 2.2208 8.09021 21.6794 10.8934
53 2 2.2208 13.6492 2.13839 2.52492
206 2 2.2208 13.6521 4.93037 10.8933
91 2 2.2208 13.6549 7.72142 2.52497
202 2 2.2208 13.6521 4.9301 5.31441
251 1 -1.1104 6.68543 11.9071 9.49831
268 1 -1.1104 9.475 11.9074 9.49902
269 1 -1.1104 9.46938 6.32436 9.49892
270 1 -1.1104 9.47489 11.9077 12.2877
271 1 -1.1104 9.46935 6.32445 12.2877
272 2 2.2208 8.07881 10.5131 10.8933
273 1 -1.1104 9.47217 9.1159 9.49828
274 2 2.2208 8.08164 13.3044 8.10397
275 2 2.2208 8.07607 7.72145 8.10387
276 2 2.2208 10.8655 7.72183 10.8933
277 2 2.2208 10.8711 13.3051 10.8934
278 1 -1.1104 12.2615 9.11636 12.2877
279 1 -1.1104 12.2616 9.11618 9.49897
280 1 -1.1104 12.2588 6.32467 12.2883
281 1 -1.1104 12.2643 11.9081 12.2884
282 2 2.2208 10.8683 10.5132 8.10394
283 1 -1.1104 12.2588 6.32456 9.49827
284 1 -1.1104 12.2644 11.9079 9.49834
285 1 -1.1104 9.47211 9.11603 12.2883
267 2 2.2208 13.6605 13.3051 8.10399
312 1 -1.1104 6.69389 20.2816 12.2876
315 1 -1.1104 12.2673 14.6996 9.49909
290 1 -1.1104 6.6883 14.6986 9.49902
293 1 -1.1104 6.694 20.2813 9.49917
227 2 2.2208 13.6492 2.13868 8.10384
288 1 -1.1104 6.68817 14.6987 12.2877
291 1 -1.1104 6.691 17.4899 9.49839
294 1 -1.1104 1.11173 17.4901 12.2882
295 2 2.2208 2.50522 16.0958 10.8933
296 2 2.2208 2.51073 21.6785 10.8933
297 1 -1.1104 3.90137 17.4899 12.2877
298 1 -1.1104 3.90415 20.2812 12.2883
299 1 -1.1104 3.89859 14.6985 12.2883
300 1 -1.1104 1.11452 20.2813 9.49891
301 1 -1.1104 1.11172 17.49 9.49839
302 2 2.2208 5.30055 21.678 8.10404
303 1 -1.1104 1.1091 14.6985 9.49888
304 2 2.2208 5.29487 16.0955 8.10399
305 1 -1.1104 1.11438 20.2816 12.2877
306 1 -1.1104 1.10897 14.6987 12.2877
307 2 2.2208 5.29766 18.8872 10.8933
308 1 -1.1104 3.90415 20.2809 9.4984
309 2 2.2208 2.50802 18.8869 8.10398
310 1 -1.1104 3.90142 17.4897 9.49899
311 1 -1.1104 3.89864 14.6984 9.49836
176 2 2.2208 13.6464 -0.652991 5.31437
114 2 2.2208 13.6578 10.5131 5.31449
228 1 -1.1104 12.2699 17.4914 9.49843
203 1 -1.1104 9.48347 20.2822 9.4984
258 1 -1.1104 12.27 17.492 12.2885
261 2 2.2208 8.08729 18.8872 8.10408
287 1 -1.1104 9.47775 14.699 9.49835
286 2 2.2208 10.8739 16.0963 8.10404
316 1 -1.1104 9.48058 17.491 12.2876
204 2 2.2208 13.6465 -0.652915 10.8932
325 2 2.2208 13.6689 21.6819 10.8934
24 2 2.2208 13.6661 18.8887 8.10413
256 2 2.2208 13.6632 16.0974 10.8934
155 2 2.2208 13.669 21.6794 5.31476
349 2 2.2208 10.8767 18.8864 -0.264429
350 2 2.2208 8.08441 16.0949 -0.264383
327 2 2.2208 13.6633 16.0955 -0.264496
330 2 2.2208 10.8543 -3.44478 -0.264683
331 2 2.2208 5.28091 2.13802 -0.264507
333 2 2.2208 2.4887 -0.653467 -0.264605
332 2 2.2208 2.49424 4.92945 -0.264498
329 2 2.2208 5.27544 -3.44492 -0.264714
335 2 2.2208 8.06757 -0.653371 -0.264562
334 2 2.2208 8.07313 4.92954 -0.264506
336 2 2.2208 10.8598 2.1382 -0.264519
348 2 2.2208 8.09007 21.6769 -0.264373
340 2 2.2208 5.2921 13.3035 -0.264424
339 2 2.2208 5.2865 7.72089 -0.264483
341 2 2.2208 2.49984 10.5122 -0.264464
342 2 2.2208 10.8654 7.72116 -0.264519
344 2 2.2208 10.8711 13.3039 -0.264445
345 2 2.2208 8.07881 10.5124 -0.264476
337 2 2.2208 13.652 4.92978 -0.264524
328 2 2.2208 2.51088 21.6767 -0.264392
338 2 2.2208 13.6464 -0.653225 -0.264578
346 2 2.2208 2.50534 16.0947 -0.264407
347 2 2.2208 5.29767 18.8857 -0.264352
343 2 2.2208 13.6577 10.5127 -0.264509
326 2 2.2208 13.6689 21.6781 -0.264575
351 2 2.2208 5.28091 2.13847 16.4721
352 1 -1.1104 1.09254 -2.05041 17.8663
353 1 -1.1104 1.09808 3.53262 17.8665
354 1 -1.1104 1.09256 -2.05032 15.0775
355 1 -1.1104 1.09807 3.53271 15.0777
356 1 -1.1104 1.0953 0.741109 17.867
357 2 2.2208 5.27814 -0.653139 19.2614
358 2 2.2208 5.28363 4.92983 19.2615
359 1 -1.1104 1.09531 0.741197 15.077
360 1 -1.1104 3.88202 -2.05036 17.867
361 1 -1.1104 3.88753 3.53264 17.8671
362 2 2.2208 2.49142 2.13832 19.2615
363 1 -1.1104 3.88202 -2.05028 15.0769
364 1 -1.1104 3.88756 3.53271 15.077
365 2 2.2208 2.48868 -0.653065 16.472
367 1 -1.1104 3.88479 0.74115 17.8664
368 1 -1.1104 3.8848 0.741204 15.0776
366 2 2.2208 2.49417 4.92993 16.4721
546 2 2.2208 8.06488 -3.44485 24.8402
376 1 -1.1104 6.67154 -2.05026 15.0776
381 1 -1.1104 6.67703 3.53267 17.8665
375 1 -1.1104 1.09806 3.53246 20.6565
373 1 -1.1104 3.88754 3.53247 20.6559
383 1 -1.1104 6.67149 -2.05034 17.8664
370 1 -1.1104 3.88477 0.741016 20.6565
525 1 -1.1104 1.09253 -2.05052 20.6564
374 1 -1.1104 3.88201 -2.05047 20.6558
377 1 -1.1104 1.09533 0.740978 20.6559
380 1 -1.1104 6.67427 0.741259 15.077
384 1 -1.1104 6.67423 0.741167 17.8671
409 1 -1.1104 6.67696 3.5325 20.6565
382 1 -1.1104 6.67705 3.53277 15.0777
372 1 -1.1104 6.67425 0.741037 20.6559
385 2 2.2208 10.8598 2.13856 16.4721
386 1 -1.1104 12.2504 -2.05042 17.8664
387 1 -1.1104 12.2559 3.53281 17.8665
388 1 -1.1104 12.2505 -2.05031 15.0776
389 1 -1.1104 12.256 3.53294 15.0777
390 1 -1.1104 12.2532 0.741179 17.867
391 2 2.2208 10.857 -0.653138 19.2614
392 2 2.2208 10.8626 4.92996 19.2615
393 1 -1.1104 12.2532 0.741329 15.077
394 1 -1.1104 9.46096 -2.05038 17.867
395 1 -1.1104 9.46646 3.53271 17.8671
396 2 2.2208 8.07035 2.13838 19.2615
397 1 -1.1104 9.46102 -2.05031 15.077
398 1 -1.1104 9.46655 3.53287 15.077
399 2 2.2208 8.06763 -0.653021 16.472
400 2 2.2208 8.07315 4.93004 16.4721
401 1 -1.1104 9.46373 0.741169 17.8665
402 1 -1.1104 9.46374 0.741278 15.0776
403 1 -1.1104 12.2531 0.741048 20.6558
407 1 -1.1104 12.2504 -2.05051 20.6564
410 1 -1.1104 9.46094 -2.05048 20.6558
404 1 -1.1104 12.2559 3.5326 20.6565
371 1 -1.1104 6.67148 -2.05045 20.6564
551 1 -1.1104 9.46648 3.53255 20.6559
552 1 -1.1104 9.46369 0.741027 20.6565
669 2 2.2208 13.6632 16.0961 22.0507
405 2 2.2208 13.6604 13.3042 24.8403
550 2 2.2208 2.48597 -3.44489 24.8402
603 2 2.2208 13.6688 21.6818 16.4715
412 2 2.2208 5.28639 7.72144 16.4721
413 2 2.2208 5.29194 13.3043 16.4721
414 1 -1.1104 1.10353 9.11558 17.8665
415 1 -1.1104 1.10351 9.11569 15.0777
416 1 -1.1104 1.10078 6.32411 17.8671
417 1 -1.1104 1.10619 11.907 17.867
418 2 2.2208 5.28918 10.5127 19.2615
419 1 -1.1104 1.10081 6.32422 15.0771
420 1 -1.1104 1.10622 11.9072 15.077
421 1 -1.1104 3.89299 9.11553 17.8671
422 2 2.2208 2.49692 7.72126 19.2615
423 2 2.2208 2.50241 13.304 19.2615
424 1 -1.1104 3.89304 9.11568 15.0771
425 2 2.2208 2.49963 10.5129 16.4721
426 1 -1.1104 3.89028 6.32412 17.8665
427 1 -1.1104 3.89579 11.9069 17.8665
428 1 -1.1104 3.89027 6.32419 15.0776
429 1 -1.1104 3.89575 11.9071 15.0777
441 1 -1.1104 3.89024 6.32391 20.6565
439 1 -1.1104 1.10352 9.11533 20.6565
433 1 -1.1104 3.89306 9.1153 20.6559
437 1 -1.1104 1.10082 6.32391 20.656
438 1 -1.1104 1.10631 11.9067 20.6559
440 1 -1.1104 3.89578 11.9066 20.6565
442 1 -1.1104 6.68539 11.9067 20.6559
430 1 -1.1104 6.68533 11.9073 15.077
431 1 -1.1104 6.68528 11.9071 17.8671
446 1 -1.1104 6.68254 9.11562 17.8665
445 1 -1.1104 6.68255 9.11575 15.0777
435 1 -1.1104 6.68252 9.11535 20.6565
664 1 -1.1104 9.48337 20.28 26.2347
657 1 -1.1104 9.48053 17.4889 26.2355
547 2 2.2208 10.8543 -3.4448 22.0507
432 1 -1.1104 6.67974 6.32413 17.8671
444 1 -1.1104 6.67979 6.32427 15.0771
447 2 2.2208 10.8654 7.72172 16.4721
448 2 2.2208 10.8709 13.305 16.472
449 1 -1.1104 12.2615 9.11604 17.8664
450 1 -1.1104 12.2614 9.11629 15.0777
451 1 -1.1104 12.2587 6.32441 17.8671
452 1 -1.1104 12.2642 11.9077 17.867
453 2 2.2208 10.8681 10.5131 19.2615
454 1 -1.1104 12.2588 6.32459 15.0771
455 1 -1.1104 12.2643 11.9081 15.077
456 1 -1.1104 9.47198 9.11579 17.8671
457 2 2.2208 8.07588 7.72134 19.2615
458 2 2.2208 8.08148 13.3043 19.2615
459 1 -1.1104 9.47205 9.11601 15.0771
460 2 2.2208 8.07867 10.5131 16.4721
461 1 -1.1104 9.46926 6.32424 17.8665
462 1 -1.1104 9.47485 11.9073 17.8664
463 1 -1.1104 9.46927 6.32441 15.0777
464 1 -1.1104 9.47479 11.9076 15.0777
469 1 -1.1104 12.2614 9.11572 20.6565
468 1 -1.1104 12.2643 11.9073 20.6558
434 1 -1.1104 6.67976 6.32393 20.6559
606 1 -1.1104 9.47481 11.907 20.6565
467 1 -1.1104 9.46919 6.32403 20.6565
466 1 -1.1104 9.47205 9.11551 20.6559
465 1 -1.1104 12.2587 6.32416 20.6559
607 2 2.2208 13.6603 13.305 19.2614
470 2 2.2208 13.6575 10.5136 16.4721
471 2 2.2208 5.29757 18.887 16.472
472 1 -1.1104 1.10899 14.6984 17.8664
473 1 -1.1104 1.11439 20.2809 17.8663
474 1 -1.1104 1.10889 14.6986 15.0776
475 1 -1.1104 1.11427 20.2814 15.0774
476 1 -1.1104 1.11161 17.4897 17.8668
477 2 2.2208 5.29476 16.0953 19.2615
478 2 2.2208 5.30035 21.6776 19.2613
479 1 -1.1104 1.11167 17.49 15.077
480 1 -1.1104 3.89849 14.6983 17.867
481 1 -1.1104 3.90398 20.2806 17.8669
482 2 2.2208 2.50791 18.8865 19.2613
483 1 -1.1104 3.89854 14.6985 15.077
484 1 -1.1104 3.90413 20.2811 15.077
485 2 2.2208 2.50514 16.0957 16.472
486 2 2.2208 2.51059 21.6782 16.4718
487 1 -1.1104 3.90136 17.4895 17.8664
488 1 -1.1104 3.90128 17.4899 15.0776
496 1 -1.1104 1.11178 17.4892 20.6558
489 1 -1.1104 6.68811 14.6987 15.0777
495 1 -1.1104 1.11434 20.2804 20.6562
497 1 -1.1104 1.10897 14.698 20.6564
493 1 -1.1104 3.90414 20.28 20.6558
492 1 -1.1104 3.90129 17.4891 20.6564
494 1 -1.1104 3.89862 14.6979 20.6559
500 1 -1.1104 6.69089 17.4897 17.8671
580 1 -1.1104 6.68811 14.698 20.6565
633 1 -1.1104 6.69378 20.2796 26.2355
490 1 -1.1104 6.68816 14.6984 17.8664
499 1 -1.1104 6.69388 20.281 17.8662
491 1 -1.1104 6.6938 20.2816 15.0777
501 1 -1.1104 6.691 17.4902 15.077
656 1 -1.1104 6.69102 17.4892 20.6558
502 1 -1.1104 6.69367 20.2802 20.6564
503 2 2.2208 10.8767 18.8886 16.4718
504 1 -1.1104 12.2671 14.6995 17.8663
505 1 -1.1104 12.273 20.2833 17.8659
506 1 -1.1104 12.2671 14.6999 15.0777
507 1 -1.1104 12.2728 20.2842 15.0776
508 1 -1.1104 12.2698 17.4913 17.8669
509 2 2.2208 10.8738 16.0962 19.2613
510 2 2.2208 10.8795 21.6794 19.261
511 1 -1.1104 12.27 17.4919 15.0769
512 1 -1.1104 9.47758 14.6989 17.867
513 1 -1.1104 9.48332 20.282 17.8669
514 2 2.2208 8.08716 18.887 19.2613
515 1 -1.1104 9.47768 14.6993 15.077
516 1 -1.1104 9.48352 20.2828 15.0768
517 2 2.2208 8.0843 16.0961 16.472
518 2 2.2208 8.09009 21.6791 16.4718
519 1 -1.1104 9.48057 17.4905 17.8662
520 1 -1.1104 9.48049 17.4909 15.0777
662 1 -1.1104 9.48346 20.281 20.6555
498 1 -1.1104 9.47773 14.6984 20.6558
522 1 -1.1104 12.27 17.4904 20.6555
579 1 -1.1104 9.47774 14.6978 26.2348
636 1 -1.1104 6.69102 17.4886 26.2349
524 1 -1.1104 12.267 14.6988 20.6564
523 1 -1.1104 9.48044 17.4897 20.6564
602 2 2.2208 13.666 18.8886 19.2611
659 1 -1.1104 12.2699 17.4897 23.4458
378 2 2.2208 13.6437 -3.4448 24.8402
576 2 2.2208 13.6437 -3.44478 19.2613
527 2 2.2208 5.28089 2.13819 22.0509
528 1 -1.1104 1.09258 -2.05065 23.4452
529 1 -1.1104 1.0981 3.5323 23.4454
530 1 -1.1104 1.09261 -2.05071 26.2353
531 1 -1.1104 1.09808 3.53221 26.2354
532 1 -1.1104 1.09534 0.740842 23.4459
533 2 2.2208 5.27815 -0.653406 24.8403
534 1 -1.1104 1.09536 0.740755 26.2348
535 1 -1.1104 3.88203 -2.05062 23.4458
536 1 -1.1104 3.88752 3.53228 23.446
537 2 2.2208 2.49145 2.13804 24.8404
538 1 -1.1104 3.88205 -2.05071 26.2347
539 1 -1.1104 3.88753 3.5322 26.2348
540 2 2.2208 2.48868 -0.65331 22.0508
541 2 2.2208 2.49418 4.92962 22.0509
542 1 -1.1104 3.8848 0.740817 23.4453
543 1 -1.1104 3.88481 0.740759 26.2354
544 2 2.2208 5.28365 4.92949 24.8404
554 2 2.2208 5.2754 -3.44476 22.0507
549 1 -1.1104 6.67423 0.740772 26.2348
545 1 -1.1104 6.67152 -2.05069 26.2353
672 1 -1.1104 12.2728 20.281 23.4449
548 1 -1.1104 6.67699 3.53222 26.2354
553 1 -1.1104 6.67425 0.740866 23.4459
369 2 2.2208 10.8544 -3.44463 16.4719
577 2 2.2208 2.48592 -3.44467 19.2613
556 1 -1.1104 6.67699 3.53232 23.4454
557 1 -1.1104 6.67149 -2.05058 23.4452
558 2 2.2208 10.8598 2.13828 22.0509
559 1 -1.1104 12.2504 -2.05058 23.4452
560 1 -1.1104 12.2559 3.53248 23.4453
561 1 -1.1104 12.2504 -2.05055 26.2353
562 1 -1.1104 12.2559 3.53244 26.2354
563 1 -1.1104 12.2531 0.740955 23.4459
564 2 2.2208 10.857 -0.653302 24.8403
565 2 2.2208 10.8626 4.92968 24.8404
566 1 -1.1104 12.2531 0.74096 26.2348
567 1 -1.1104 9.46096 -2.05061 23.4458
568 1 -1.1104 9.46643 3.5324 23.446
569 2 2.2208 8.07033 2.13811 24.8404
570 1 -1.1104 9.46093 -2.0506 26.2347
571 1 -1.1104 9.46642 3.53233 26.2348
572 2 2.2208 8.0676 -0.653264 22.0509
573 2 2.2208 8.0731 4.9297 22.0509
574 1 -1.1104 9.4637 0.74091 23.4454
575 1 -1.1104 9.46368 0.740854 26.2354
660 2 2.2208 10.8738 16.0953 24.8403
555 2 2.2208 5.2754 -3.44454 16.4719
675 2 2.2208 10.8795 21.6776 24.8402
674 2 2.2208 8.08998 21.6774 22.0507
670 2 2.2208 10.8766 18.887 22.0507
411 2 2.2208 8.06486 -3.44465 19.2613
634 1 -1.1104 6.68822 14.6975 26.2355
611 2 2.2208 13.6493 2.13843 19.2614
406 2 2.2208 13.652 4.93022 16.4721
630 2 2.2208 13.6548 7.72127 24.8404
582 2 2.2208 5.28641 7.72107 22.0509
583 2 2.2208 5.292 13.3037 22.0509
584 1 -1.1104 1.10359 9.11513 23.4454
585 1 -1.1104 1.10365 9.11505 26.2354
586 1 -1.1104 1.1008 6.32375 23.446
587 1 -1.1104 1.1063 11.9065 23.446
588 2 2.2208 5.28925 10.5123 24.8404
589 1 -1.1104 1.10088 6.32364 26.2349
590 1 -1.1104 1.10642 11.9063 26.2349
591 1 -1.1104 3.89306 9.11508 23.446
592 2 2.2208 2.49698 7.72092 24.8404
593 2 2.2208 2.50253 13.3036 24.8404
594 1 -1.1104 3.89313 9.11495 26.2348
595 2 2.2208 2.49969 10.5124 22.0509
596 1 -1.1104 3.8903 6.3237 23.4454
597 1 -1.1104 3.89583 11.9064 23.4454
598 1 -1.1104 3.89033 6.32362 26.2354
599 1 -1.1104 3.89592 11.9063 26.2355
609 1 -1.1104 6.67978 6.32364 26.2348
604 1 -1.1104 6.68535 11.9064 23.446
610 1 -1.1104 6.68258 9.11514 23.4454
666 1 -1.1104 12.27 17.4894 26.2347
668 1 -1.1104 6.69381 20.2798 23.4452
601 1 -1.1104 6.68259 9.11503 26.2355
605 1 -1.1104 6.67973 6.32377 23.446
578 2 2.2208 13.652 4.92985 22.0509
608 2 2.2208 13.6548 7.72166 19.2615
526 2 2.2208 13.6492 2.13825 24.8403
600 1 -1.1104 6.68542 11.9063 26.2348
612 1 -1.1104 9.47201 9.11529 23.446
613 1 -1.1104 12.2644 11.9068 26.2348
614 1 -1.1104 12.2587 6.32392 26.2348
615 2 2.2208 10.8682 10.5126 24.8404
616 1 -1.1104 12.2643 11.9069 23.4459
617 1 -1.1104 12.2587 6.32396 23.446
618 1 -1.1104 12.2615 9.11537 26.2354
619 1 -1.1104 12.2615 9.11546 23.4453
620 1 -1.1104 9.47492 11.9066 26.2355
621 1 -1.1104 9.46925 6.32381 26.2354
622 1 -1.1104 9.47489 11.9067 23.4453
623 1 -1.1104 9.46923 6.32385 23.4453
624 2 2.2208 8.07871 10.5126 22.0509
625 1 -1.1104 9.47207 9.11522 26.2348
626 2 2.2208 8.08158 13.3037 24.8404
627 2 2.2208 8.07592 7.72102 24.8404
628 2 2.2208 10.8653 7.72128 22.0509
629 2 2.2208 10.871 13.3042 22.0509
521 1 -1.1104 12.2726 20.282 20.6561
665 1 -1.1104 12.2672 14.6984 23.4452
631 2 2.2208 13.6465 -0.653265 22.0508
635 1 -1.1104 6.68823 14.6977 23.4453
408 2 2.2208 13.6465 -0.653043 16.472
637 2 2.2208 2.51068 21.677 22.0508
638 1 -1.1104 3.9014 17.4886 23.4453
639 1 -1.1104 1.11176 17.4889 23.4458
640 1 -1.1104 3.89866 14.6974 26.2349
641 1 -1.1104 3.90144 17.4886 26.2355
642 2 2.2208 2.50802 18.8858 24.8404
643 1 -1.1104 3.90416 20.2795 26.2349
644 2 2.2208 5.29757 18.886 22.0509
645 1 -1.1104 1.10914 14.6977 23.4453
646 1 -1.1104 1.11452 20.2799 23.4453
647 2 2.2208 5.29483 16.0947 24.8404
648 2 2.2208 5.30041 21.6766 24.8404
649 1 -1.1104 1.10916 14.6976 26.2354
650 1 -1.1104 1.11188 17.4887 26.2349
651 1 -1.1104 1.11458 20.2798 26.2354
652 1 -1.1104 3.89863 14.6976 23.446
653 1 -1.1104 3.90408 20.2796 23.4459
654 2 2.2208 2.50522 16.0949 22.0509
581 2 2.2208 13.6631 16.0973 16.4719
655 1 -1.1104 6.69093 17.4888 23.446
443 1 -1.1104 9.47768 14.698 23.446
658 2 2.2208 8.08717 18.886 24.8404
673 1 -1.1104 9.48055 17.4892 23.4452
661 2 2.2208 8.08435 16.0952 22.0509
632 1 -1.1104 12.2672 14.6981 26.2354
667 1 -1.1104 12.2728 20.2806 26.2354
663 1 -1.1104 9.48327 20.2803 23.4458
379 2 2.2208 13.6576 10.513 22.0509
436 2 2.2208 13.666 18.887 24.8402
671 2 2.2208 13.6688 21.6791 22.0503
699 2 2.2208 10.8738 16.097 13.6827
700 2 2.2208 8.08723 18.8879 13.6826
687 2 2.2208 5.27817 -0.652996 13.6826
677 2 2.2208 2.49146 2.13849 13.6826
676 2 2.2208 5.28371 4.93 13.6827
683 2 2.2208 8.07042 2.13858 13.6827
679 2 2.2208 13.6438 -3.44461 13.6825
680 2 2.2208 10.8626 4.93024 13.6827
689 2 2.2208 2.48593 -3.44453 13.6825
678 2 2.2208 10.8571 -0.652959 13.6826
684 2 2.2208 2.49697 7.72146 13.6827
685 2 2.2208 5.28921 10.513 13.6827
681 2 2.2208 8.0649 -3.44453 13.6825
688 2 2.2208 2.50241 13.3044 13.6826
694 2 2.2208 13.6603 13.3056 13.6827
690 2 2.2208 8.07595 7.72163 13.6827
692 2 2.2208 8.08151 13.3048 13.6827
693 2 2.2208 10.8682 10.5135 13.6827
697 2 2.2208 5.30044 21.6786 13.6826
696 2 2.2208 5.29478 16.0959 13.6827
695 2 2.2208 2.50791 18.8872 13.6826
682 2 2.2208 13.6493 2.13869 13.6827
698 2 2.2208 10.8796 21.6811 13.6825
691 2 2.2208 13.6548 7.72206 13.6827
686 2 2.2208 13.666 18.8898 13.6826
701 2 2.2208 5.30353 24.4683 5.31467
702 2 2.2208 5.31011 30.0499 5.3148
703 1 -1.1104 1.1203 25.8616 1.13008
704 1 -1.1104 1.12036 25.8621 3.92015
705 1 -1.1104 1.11748 23.0708 1.13059
706 1 -1.1104 1.1235 28.6522 1.13068
707 2 2.2208 5.30665 27.2585 2.52538
708 1 -1.1104 1.11734 23.0713 3.91963
709 1 -1.1104 1.12326 28.6528 3.91962
710 1 -1.1104 3.91011 25.8611 1.13077
711 2 2.2208 2.51385 24.4679 2.52518
712 2 2.2208 2.52044 30.0493 2.52539
713 1 -1.1104 3.90998 25.8616 3.91961
714 2 2.2208 2.51687 27.2593 5.31464
715 1 -1.1104 3.90705 23.0704 1.13007
716 1 -1.1104 3.91304 28.6516 1.13019
717 1 -1.1104 3.90717 23.0709 3.92023
718 1 -1.1104 3.91323 28.6521 3.92037
727 1 -1.1104 1.11735 23.0719 6.70956
730 1 -1.1104 6.70284 28.6521 3.9197
719 1 -1.1104 1.12313 28.6535 6.70961
726 1 -1.1104 3.91004 25.8622 6.70968
881 1 -1.1104 3.907 23.0714 6.70908
723 1 -1.1104 6.69673 23.0709 3.9196
724 1 -1.1104 6.69967 25.8612 1.13009
732 1 -1.1104 6.69681 23.0705 1.13077
758 1 -1.1104 6.69692 23.0716 6.70981
1020 1 -1.1104 12.3291 42.6383 9.51058
906 1 -1.1104 9.50645 39.8276 12.2878
721 1 -1.1104 3.91291 28.6527 6.70907
720 1 -1.1104 1.12001 25.8629 6.7091
1019 2 2.2208 -0.234305 44.0022 2.52036
733 1 -1.1104 6.70294 28.6518 1.13105
722 1 -1.1104 6.6999 25.8616 3.9204
728 1 -1.1104 6.7031 28.653 6.71007
734 2 2.2208 10.8827 24.47 5.31487
735 2 2.2208 10.889 30.0527 5.31536
736 1 -1.1104 12.2787 25.8626 1.12991
737 1 -1.1104 12.2791 25.8636 3.92064
738 1 -1.1104 12.2758 23.0717 1.1307
739 1 -1.1104 12.282 28.6533 1.13085
740 2 2.2208 10.8856 27.2599 2.52547
741 1 -1.1104 12.2757 23.0724 3.91963
742 1 -1.1104 12.2819 28.6544 3.91993
743 1 -1.1104 9.48942 25.8618 1.13087
744 2 2.2208 8.09313 24.4681 2.52529
745 2 2.2208 8.0995 30.0499 2.52577
746 1 -1.1104 9.48934 25.8624 3.91968
747 2 2.2208 8.09631 27.2599 5.31487
748 1 -1.1104 9.48629 23.071 1.13
749 1 -1.1104 9.49231 28.6524 1.13017
750 1 -1.1104 9.4865 23.0715 3.92044
751 1 -1.1104 9.49281 28.6532 3.92079
756 1 -1.1104 12.2825 28.6569 6.71079
753 1 -1.1104 12.2787 25.8654 6.7094
755 1 -1.1104 9.48971 25.8637 6.71018
759 1 -1.1104 12.2761 23.0738 6.71006
731 1 -1.1104 6.69973 25.8624 6.70906
815 2 2.2208 2.55049 44.0072 -0.26156
935 2 2.2208 -0.272772 27.2593 2.52516
761 2 2.2208 5.31914 35.6319 5.31521
762 1 -1.1104 1.12671 31.4426 1.12998
763 1 -1.1104 1.13514 37.0235 1.12953
764 1 -1.1104 1.12685 31.4433 3.92026
765 1 -1.1104 1.13569 37.0241 3.92036
766 1 -1.1104 1.1307 34.2334 1.13092
767 2 2.2208 5.31396 32.8403 2.52598
768 2 2.2208 5.32477 38.4245 2.52696
769 1 -1.1104 1.1307 34.2335 3.91917
770 1 -1.1104 3.91656 31.4423 1.13115
771 1 -1.1104 3.92469 37.0243 1.13204
772 2 2.2208 2.52975 35.6309 2.52569
773 1 -1.1104 3.9165 31.4425 3.91966
774 1 -1.1104 3.92514 37.0233 3.91915
775 2 2.2208 2.52452 32.8405 5.31464
776 2 2.2208 2.53797 38.4219 5.31413
777 1 -1.1104 3.92009 34.2327 1.13037
778 1 -1.1104 3.9205 34.233 3.92077
936 1 -1.1104 3.9202 34.2328 6.70887
783 1 -1.1104 1.13533 37.0237 6.70795
784 1 -1.1104 3.9164 31.4428 6.70992
933 1 -1.1104 1.13029 34.2341 6.7097
789 1 -1.1104 6.70981 34.2332 1.13185
792 1 -1.1104 6.70647 31.4425 3.92074
786 1 -1.1104 3.92519 37.0227 6.71041
782 1 -1.1104 1.12618 31.4441 6.70903
961 2 2.2208 10.8994 41.2725 10.8776
781 1 -1.1104 6.70594 31.4422 1.13043
785 1 -1.1104 6.71363 37.0243 1.13085
779 1 -1.1104 6.71421 37.0234 3.92142
817 1 -1.1104 6.71031 34.2328 6.7104
780 1 -1.1104 6.71001 34.2327 3.9198
970 1 -1.1104 6.71434 37.022 6.70901
793 2 2.2208 10.8958 35.636 5.31635