ITEM: TIMESTEP
310
ITEM: NUMBER OF ATOMS
17672
ITEM: BOX BOUNDS pp pp pp
-2.7717828229332220e-01 2.7617178282293317e+01
-3.4472205766305355e+00 3.3152722057663055e+02
-2.7717827830221448e-01 2.7617178278302212e+01
ITEM: ATOMS id type q x y z
1 2 2.2208 5.28954 2.13531 5.30816
2 1 -1.1104 1.10222 -2.0529 1.12384
3 1 -1.1104 1.10627 3.53031 1.12382
4 1 -1.1104 1.10228 -2.05285 3.91373
5 1 -1.1104 1.10627 3.53035 3.91369
6 1 -1.1104 1.10424 0.73872 1.12425
7 2 2.2208 5.28749 -0.656344 2.51875
8 1 -1.1104 1.10428 0.738746 3.91329
9 1 -1.1104 3.89171 -2.05292 1.12427
10 1 -1.1104 3.89578 3.53022 1.1242
11 2 2.2208 2.50001 2.13527 2.51875
12 1 -1.1104 3.89176 -2.05289 3.91331
13 1 -1.1104 3.89578 3.53029 3.91324
14 2 2.2208 2.49805 -0.656276 5.30824
15 2 2.2208 2.50198 4.92696 5.30817
16 1 -1.1104 3.89373 0.738648 1.12381
17 1 -1.1104 3.89378 0.738706 3.9137
18 2 2.2208 5.29153 4.92682 2.51868
32 1 -1.1104 6.68328 0.7387 3.91324
26 1 -1.1104 6.68533 3.53028 3.91362
28 1 -1.1104 6.68322 0.738642 1.12422
31 1 -1.1104 6.6812 -2.05294 1.12385
183 1 -1.1104 1.10431 0.73883 6.70316
20 1 -1.1104 1.10234 -2.05281 6.70279
319 1 -1.1104 9.48254 14.6977 9.49188
694 2 2.2208 13.6579 2.13568 13.6763
266 2 2.2208 13.6599 4.92757 10.8869
21 1 -1.1104 3.89578 3.53041 6.70309
19 1 -1.1104 1.10624 3.53049 6.70273
29 1 -1.1104 6.68135 -2.0528 6.70275
322 2 2.2208 8.08879 16.0942 10.8868
698 2 2.2208 5.30293 21.677 13.6762
30 1 -1.1104 6.68126 -2.05287 3.91374
27 1 -1.1104 6.6853 3.5302 1.12373
56 1 -1.1104 6.68528 3.53043 6.70263
684 2 2.2208 13.6619 7.71954 13.6762
33 2 2.2208 10.8686 2.13542 5.30813
34 1 -1.1104 12.2601 -2.05294 1.12382
35 1 -1.1104 12.2642 3.53037 1.12365
36 1 -1.1104 12.2602 -2.05288 3.91371
37 1 -1.1104 12.2643 3.53049 3.91359
38 1 -1.1104 12.2622 0.738724 1.12419
39 2 2.2208 10.8665 -0.656324 2.51874
40 1 -1.1104 12.2623 0.738784 3.91321
41 1 -1.1104 9.47068 -2.05293 1.12427
42 1 -1.1104 9.47479 3.53026 1.12414
43 2 2.2208 8.07903 2.13524 2.51869
44 1 -1.1104 9.47075 -2.0529 3.91329
45 1 -1.1104 9.4748 3.53035 3.91316
46 2 2.2208 8.07706 -0.656277 5.30819
47 1 -1.1104 9.47273 0.738647 1.12375
48 1 -1.1104 9.47279 0.738733 3.91367
49 2 2.2208 8.08102 4.92698 5.30809
50 2 2.2208 10.8705 4.92697 2.51862
53 1 -1.1104 12.2603 -2.05284 6.70273
59 2 2.2208 13.6599 4.92728 5.30808
51 1 -1.1104 9.47084 -2.05281 6.70316
54 1 -1.1104 6.68333 0.738818 6.70311
57 1 -1.1104 9.47283 0.738851 6.70266
58 1 -1.1104 9.47482 3.53052 6.70304
52 1 -1.1104 12.2643 3.53065 6.70261
55 1 -1.1104 12.2623 0.738892 6.7031
208 2 2.2208 10.8803 18.887 10.8869
61 2 2.2208 5.29342 7.71851 5.3081
62 2 2.2208 5.29724 13.3017 5.308
63 1 -1.1104 1.11018 9.11348 1.12376
64 1 -1.1104 1.11013 9.11359 3.91358
65 1 -1.1104 1.10825 6.3219 1.12419
66 1 -1.1104 1.11207 11.905 1.12402
67 2 2.2208 5.29537 10.5099 2.51859
68 1 -1.1104 1.1082 6.322 3.91327
69 1 -1.1104 1.11199 11.9052 3.91316
70 1 -1.1104 3.89969 9.11329 1.1241
71 2 2.2208 2.50396 7.71844 2.51869
72 2 2.2208 2.50776 13.3015 2.51854
73 1 -1.1104 3.89962 9.11343 3.91318
74 2 2.2208 2.5058 10.5102 5.30807
75 1 -1.1104 3.89778 6.32178 1.12375
76 1 -1.1104 3.90159 11.9048 1.12365
77 1 -1.1104 3.89774 6.32185 3.91362
78 1 -1.1104 3.90154 11.9049 3.91351
80 1 -1.1104 3.90145 11.9052 6.70257
87 1 -1.1104 6.68725 6.32188 3.91316
187 2 2.2208 13.6697 18.8873 8.09768
82 1 -1.1104 1.11198 11.9055 6.70295
79 1 -1.1104 3.89767 6.32204 6.70266
94 1 -1.1104 6.68917 9.11342 3.91355
83 1 -1.1104 6.69113 11.9048 1.12401
85 1 -1.1104 1.11004 9.11383 6.70267
81 1 -1.1104 1.10818 6.32214 6.70309
84 1 -1.1104 3.8996 9.11364 6.70302
93 1 -1.1104 6.69106 11.9052 6.70299
92 1 -1.1104 6.68908 9.11366 6.70258
119 1 -1.1104 6.68724 6.32204 6.70303
267 2 2.2208 13.656 -0.656141 10.887
90 1 -1.1104 6.69103 11.9049 3.91308
91 1 -1.1104 6.68921 9.1133 1.12364
86 1 -1.1104 6.6873 6.32175 1.12412
95 2 2.2208 10.8724 7.71882 5.30805
96 2 2.2208 10.8763 13.3022 5.30804
97 1 -1.1104 12.2681 9.1137 1.12358
98 1 -1.1104 12.2681 9.11393 3.91356
99 1 -1.1104 12.2662 6.32203 1.12406
100 1 -1.1104 12.2701 11.9053 1.12405
101 2 2.2208 10.8743 10.5103 2.51856
102 1 -1.1104 12.2662 6.3222 3.91311
103 1 -1.1104 12.27 11.9056 3.91307
104 1 -1.1104 9.47871 9.11343 1.12405
105 2 2.2208 8.08298 7.71843 2.51861
106 2 2.2208 8.08679 13.3015 2.51853
107 1 -1.1104 9.47864 9.11362 3.9131
108 2 2.2208 8.08484 10.5102 5.30803
109 1 -1.1104 9.47678 6.32186 1.12364
110 1 -1.1104 9.4806 11.905 1.12355
111 1 -1.1104 9.47678 6.32199 3.91357
112 1 -1.1104 9.48059 11.9052 3.91354
292 2 2.2208 13.6619 7.71884 2.51859
114 1 -1.1104 9.47672 6.3222 6.70256
115 1 -1.1104 12.2662 6.32243 6.70301
116 1 -1.1104 12.2681 9.11423 6.70253
235 2 2.2208 13.6637 10.5109 5.30806
118 1 -1.1104 12.2701 11.906 6.70302
122 2 2.2208 5.30124 18.8845 5.30804
123 1 -1.1104 1.11394 14.6965 1.12359
124 1 -1.1104 1.11777 20.279 1.12364
125 1 -1.1104 1.11395 14.6967 3.91342
126 1 -1.1104 1.11789 20.2795 3.9135
127 1 -1.1104 1.1159 17.4878 1.12388
128 2 2.2208 5.29924 16.0928 2.51849
129 2 2.2208 5.30331 21.6752 2.51869
130 1 -1.1104 1.11581 17.4882 3.91308
131 1 -1.1104 3.90349 14.6962 1.12394
132 1 -1.1104 3.90747 20.2786 1.124
133 2 2.2208 2.51168 18.8843 2.51851
134 1 -1.1104 3.90343 14.6964 3.91305
135 1 -1.1104 3.90737 20.279 3.91315
136 2 2.2208 2.50967 16.0933 5.30797
137 2 2.2208 2.5136 21.676 5.30817
138 1 -1.1104 3.90541 17.4875 1.12351
139 1 -1.1104 3.90547 17.4878 3.91343
143 1 -1.1104 3.90743 20.2795 6.70299
140 1 -1.1104 1.11586 17.4887 6.70284
152 1 -1.1104 6.69716 20.279 3.91365
149 1 -1.1104 6.69508 17.4882 6.703
142 1 -1.1104 3.90347 14.6967 6.70291
141 1 -1.1104 1.11758 20.2802 6.70269
186 2 2.2208 13.6677 16.0958 10.8869
240 2 2.2208 13.658 2.13561 8.09757
182 1 -1.1104 12.2761 20.2836 12.2813
147 1 -1.1104 6.69502 17.4875 1.12398
148 1 -1.1104 6.69301 14.6962 1.12352
156 1 -1.1104 6.69497 17.4878 3.91302
155 1 -1.1104 6.69699 20.2786 1.12359
151 1 -1.1104 6.69303 14.6964 3.91349
180 1 -1.1104 9.48454 17.4888 6.70255
157 2 2.2208 10.8803 18.8855 5.30819
158 1 -1.1104 12.272 14.6969 1.12354
159 1 -1.1104 12.276 20.2798 1.12362
160 1 -1.1104 12.272 14.6973 3.91361
161 1 -1.1104 12.2762 20.2805 3.91389
162 1 -1.1104 12.274 17.4884 1.12411
163 2 2.2208 10.8782 16.0934 2.51856
164 2 2.2208 10.8824 21.6763 2.51879
165 1 -1.1104 12.274 17.4889 3.91313
166 1 -1.1104 9.48255 14.6965 1.12401
167 1 -1.1104 9.48665 20.2791 1.12418
168 2 2.2208 8.09081 18.8843 2.51859
169 1 -1.1104 9.48248 14.6968 3.91303
170 1 -1.1104 9.48659 20.2796 3.91317
171 2 2.2208 8.08877 16.0933 5.30802
172 2 2.2208 8.09291 21.6761 5.30829
173 1 -1.1104 9.4845 17.4878 1.12352
174 1 -1.1104 9.48463 17.4882 3.91363
178 1 -1.1104 12.2742 17.4897 6.70324
175 1 -1.1104 9.48682 20.2803 6.70332
177 1 -1.1104 9.48258 14.6972 6.70304
150 1 -1.1104 6.69297 14.6968 6.70249
176 1 -1.1104 12.2719 14.6979 6.70254
179 1 -1.1104 12.2761 20.2815 6.70277
287 2 2.2208 13.6718 21.6782 5.30844
22 1 -1.1104 3.89183 -2.05279 6.70319
681 2 2.2208 13.6658 13.3037 13.6761
238 2 2.2208 13.6638 10.5115 10.8868
678 2 2.2208 5.28756 -0.65606 13.6765
680 2 2.2208 5.29147 4.92733 13.6764
23 1 -1.1104 3.8938 0.738803 6.70271
189 2 2.2208 5.28952 2.13556 10.887
190 1 -1.1104 1.1024 -2.0527 12.2817
191 1 -1.1104 1.10625 3.53073 12.2816
192 1 -1.1104 1.10239 -2.05274 9.49266
193 1 -1.1104 1.10626 3.53063 9.49257
194 1 -1.1104 1.10431 0.739005 12.2821
195 2 2.2208 5.28759 -0.656187 8.09765
196 2 2.2208 5.29149 4.92708 8.09755
197 1 -1.1104 1.10432 0.738947 9.4922
198 1 -1.1104 3.89187 -2.05268 12.282
199 1 -1.1104 3.89574 3.53068 12.2819
200 2 2.2208 2.50003 2.13546 8.09764
201 1 -1.1104 3.89188 -2.05273 9.49221
202 1 -1.1104 3.89574 3.53057 9.4921
203 2 2.2208 2.49809 -0.65612 10.8871
204 2 2.2208 2.50196 4.92726 10.887
205 1 -1.1104 3.89379 0.739011 12.2816
206 1 -1.1104 3.89382 0.738905 9.49256
207 1 -1.1104 6.68526 3.53069 12.2815
212 1 -1.1104 6.68527 3.53058 9.49247
213 1 -1.1104 6.68329 0.738997 12.2819
214 1 -1.1104 6.68333 0.738933 9.49211
679 2 2.2208 2.50003 2.13564 13.6765
683 2 2.2208 8.07899 2.13564 13.6764
215 1 -1.1104 6.68138 -2.05266 12.2816
211 1 -1.1104 6.68139 -2.05272 9.49259
216 2 2.2208 10.8685 2.13562 10.887
217 1 -1.1104 12.2603 -2.05278 12.2816
218 1 -1.1104 12.2642 3.53085 12.2814
219 1 -1.1104 12.2603 -2.0528 9.49257
220 1 -1.1104 12.2643 3.53079 9.49246
221 1 -1.1104 12.2623 0.73902 12.2819
222 2 2.2208 10.8666 -0.656189 8.09763
223 1 -1.1104 12.2623 0.738978 9.49208
224 1 -1.1104 9.47084 -2.05273 12.282
225 1 -1.1104 9.47476 3.53074 12.2818
226 2 2.2208 8.07906 2.13547 8.09756
227 1 -1.1104 9.47087 -2.05276 9.49217
228 1 -1.1104 9.47478 3.53067 9.49201
229 2 2.2208 8.07709 -0.65611 10.887
230 2 2.2208 8.08098 4.92729 10.8869
231 1 -1.1104 9.4728 0.739016 12.2815
232 1 -1.1104 9.47283 0.738944 9.4925
233 2 2.2208 10.8705 4.92728 8.0975
686 2 2.2208 10.8665 -0.656121 13.6764
682 2 2.2208 10.8705 4.92745 13.6763
241 2 2.2208 5.2934 7.71889 10.8869
242 2 2.2208 5.29723 13.3023 10.8868
243 1 -1.1104 1.11007 9.11426 12.2815
244 1 -1.1104 1.11006 9.1141 9.49242
245 1 -1.1104 1.10818 6.32249 12.2819
246 1 -1.1104 1.11193 11.906 12.2817
247 2 2.2208 5.2953 10.5104 8.09749
248 1 -1.1104 1.10815 6.32236 9.49213
249 1 -1.1104 1.11189 11.9058 9.492
250 1 -1.1104 3.89959 9.11406 12.2818
251 2 2.2208 2.50387 7.71879 8.09756
252 2 2.2208 2.50768 13.3021 8.09742
253 1 -1.1104 3.89955 9.11389 9.49204
254 2 2.2208 2.50576 10.5107 10.8869
255 1 -1.1104 3.89767 6.32239 12.2815
256 1 -1.1104 3.90149 11.9057 12.2813
257 1 -1.1104 3.89768 6.32222 9.49248
258 1 -1.1104 3.90148 11.9055 9.49236
265 1 -1.1104 6.68722 6.32237 12.2818
263 1 -1.1104 6.68913 9.1139 9.49243
690 2 2.2208 5.29536 10.5107 13.6762
262 1 -1.1104 6.69101 11.9055 9.49194
264 1 -1.1104 6.68915 9.11407 12.2814
268 1 -1.1104 6.68719 6.32224 9.49201
688 2 2.2208 2.50765 13.3025 13.6761
188 2 2.2208 13.6618 7.71932 8.09747
692 2 2.2208 8.08295 7.71908 13.6763
113 1 -1.1104 9.48052 11.9056 6.70251
693 2 2.2208 8.08685 13.3026 13.6762
117 1 -1.1104 9.47866 9.11388 6.70301
259 1 -1.1104 6.69108 11.9058 12.2818
269 1 -1.1104 9.48061 11.9059 9.49241
270 1 -1.1104 9.47673 6.32239 9.49242
271 1 -1.1104 9.48063 11.9061 12.2812
272 1 -1.1104 9.47673 6.32253 12.2813
273 2 2.2208 8.08486 10.5107 10.8869
274 1 -1.1104 9.47862 9.11415 9.49193
275 2 2.2208 8.08677 13.3022 8.09745
276 2 2.2208 8.08291 7.71883 8.09749
277 2 2.2208 10.8724 7.71924 10.8868
278 2 2.2208 10.8763 13.303 10.8868
279 1 -1.1104 12.2682 9.11467 12.2812
280 1 -1.1104 12.2681 9.11452 9.49239
281 1 -1.1104 12.2662 6.32273 12.2818
282 1 -1.1104 12.2701 11.9067 12.2817
283 2 2.2208 10.8743 10.5109 8.09746
284 1 -1.1104 12.2662 6.32263 9.49195
285 1 -1.1104 12.27 11.9064 9.4919
286 1 -1.1104 9.4787 9.11432 12.2818
691 2 2.2208 10.8744 10.5112 13.6762
234 2 2.2208 13.6657 13.3032 8.09748
687 2 2.2208 2.5039 7.71909 13.6764
145 1 -1.1104 3.90533 17.4882 6.70252
146 1 -1.1104 6.69699 20.2795 6.70262
144 1 -1.1104 1.11382 14.6971 6.70254
261 1 -1.1104 6.69692 20.2806 12.2813
697 2 2.2208 2.5113 18.8858 13.676
290 1 -1.1104 6.69497 17.4887 9.4919
289 1 -1.1104 6.695 17.489 12.2817
294 1 -1.1104 1.11557 17.4895 12.2815
295 2 2.2208 2.50954 16.0941 10.8867
296 2 2.2208 2.51321 21.6772 10.8869
297 1 -1.1104 3.90524 17.489 12.2812
298 1 -1.1104 3.90713 20.2804 12.2816
299 1 -1.1104 3.90338 14.6974 12.2816
300 1 -1.1104 1.11755 20.2808 9.49226
301 1 -1.1104 1.11563 17.4892 9.49194
302 2 2.2208 5.30317 21.6764 8.09764
303 1 -1.1104 1.11383 14.6976 9.49223
304 2 2.2208 5.2992 16.0935 8.09741
305 1 -1.1104 1.11726 20.2812 12.2813
306 1 -1.1104 1.11374 14.6978 12.2813
307 2 2.2208 5.30114 18.8854 10.8868
308 1 -1.1104 3.90716 20.2801 9.49201
309 2 2.2208 2.51154 18.8853 8.09742
310 1 -1.1104 3.90538 17.4887 9.49228
311 1 -1.1104 3.90337 14.6971 9.49191
320 1 -1.1104 6.69302 14.6974 12.2812
696 2 2.2208 5.29915 16.094 13.6761
695 2 2.2208 10.8783 16.0951 13.6761
239 1 -1.1104 9.48674 20.2818 12.282
181 1 -1.1104 9.48469 17.4894 9.49254
325 2 2.2208 10.8824 21.6781 8.09784
237 1 -1.1104 12.2721 14.6984 9.49249
317 2 2.2208 8.09083 18.8854 8.09753
321 1 -1.1104 6.6971 20.2802 9.49253
312 2 2.2208 10.8783 16.0945 8.09751
314 1 -1.1104 12.2741 17.4911 12.2819
316 2 2.2208 8.09281 21.6776 10.887
210 1 -1.1104 12.274 17.4905 9.49197
324 1 -1.1104 6.69304 14.6972 9.49237
315 1 -1.1104 9.48263 14.698 12.2818
700 2 2.2208 10.8823 21.6795 13.6763
121 1 -1.1104 12.2763 20.2827 9.49283
323 1 -1.1104 12.2721 14.6988 12.2812
120 1 -1.1104 9.48662 20.2812 9.49203
699 2 2.2208 8.09076 18.8861 13.6761
209 1 -1.1104 9.48461 17.4898 12.2812
318 2 2.2208 13.6579 2.1354 2.51866
313 2 2.2208 13.656 -0.656231 5.30818
685 2 2.2208 13.6697 18.8884 13.6761
288 2 2.2208 13.6657 13.3023 2.51859
293 2 2.2208 13.6697 18.8856 2.51868
236 2 2.2208 13.6677 16.0946 5.30814
184 2 2.2208 13.6717 21.6807 10.8871
676 2 2.2208 2.4962 -3.44776 13.6766
291 2 2.2208 13.654 -3.44795 8.09768
154 2 2.2208 10.8645 -3.44793 5.30826
185 2 2.2208 5.28556 -3.44787 5.30827
153 2 2.2208 2.49601 -3.44792 2.5188
689 2 2.2208 13.654 -3.44798 13.6765
89 2 2.2208 8.07498 -3.44795 2.51881
260 2 2.2208 13.6539 -3.44798 2.51881
677 2 2.2208 8.07516 -3.44778 13.6765
88 2 2.2208 2.49614 -3.44782 8.09773
60 2 2.2208 5.28567 -3.44776 10.8871
24 2 2.2208 10.8646 -3.44788 10.8871
25 2 2.2208 8.07512 -3.44784 8.0977
351 2 2.2208 5.28947 2.13564 16.4658
352 1 -1.1104 1.10236 -2.05271 17.8605
353 1 -1.1104 1.10625 3.53075 17.8604
354 1 -1.1104 1.10237 -2.0527 15.0715
355 1 -1.1104 1.10625 3.53078 15.0714
356 1 -1.1104 1.10427 0.739003 17.8609
357 2 2.2208 5.2875 -0.65613 19.2553
358 2 2.2208 5.29147 4.9272 19.2552
359 1 -1.1104 1.1043 0.739043 15.071
360 1 -1.1104 3.89182 -2.05269 17.8608
361 1 -1.1104 3.8957 3.53068 17.8608
362 2 2.2208 2.49999 2.13557 19.2553
363 1 -1.1104 3.89187 -2.05264 15.071
364 1 -1.1104 3.89574 3.53074 15.0709
365 2 2.2208 2.49807 -0.656071 16.466
366 1 -1.1104 3.89376 0.739012 17.8604
367 1 -1.1104 3.89377 0.739034 15.0714
368 2 2.2208 2.50198 4.92737 16.4658
384 1 -1.1104 6.68135 -2.05266 15.0714
375 1 -1.1104 3.89573 3.53055 20.6498
409 1 -1.1104 6.68518 3.53049 20.6501
337 2 2.2208 10.8802 18.8846 27.6234
407 1 -1.1104 6.68321 0.738879 20.6498
376 1 -1.1104 1.10425 0.738926 20.6499
369 1 -1.1104 1.10231 -2.05277 20.6503
370 1 -1.1104 3.8937 0.738895 20.6502
670 2 2.2208 8.08878 16.0932 22.0443
372 1 -1.1104 6.68327 0.739041 15.0709
381 1 -1.1104 6.68522 3.53071 15.0713
383 1 -1.1104 6.68133 -2.05268 17.8604
379 1 -1.1104 6.6832 0.738973 17.8607
582 2 2.2208 13.6579 2.13537 24.834
642 2 2.2208 13.6599 4.9275 16.4656
669 2 2.2208 13.6559 -0.656191 16.4658
382 1 -1.1104 6.68523 3.53067 17.8603
385 2 2.2208 10.8684 2.13562 16.4657
386 1 -1.1104 12.2602 -2.05282 17.8604
387 1 -1.1104 12.2642 3.53073 17.8601
388 1 -1.1104 12.2602 -2.05282 15.0713
389 1 -1.1104 12.2642 3.53083 15.0712
390 1 -1.1104 12.2621 0.738928 17.8607
391 2 2.2208 10.8664 -0.656199 19.2552
392 2 2.2208 10.8705 4.92724 19.2551
393 1 -1.1104 12.2622 0.739002 15.0709
394 1 -1.1104 9.47077 -2.05275 17.8608
395 1 -1.1104 9.47469 3.53067 17.8606
396 2 2.2208 8.07894 2.13551 19.2552
397 1 -1.1104 9.47083 -2.05272 15.071
398 1 -1.1104 9.47474 3.53078 15.0708
399 2 2.2208 8.07701 -0.656098 16.4658
400 2 2.2208 8.08097 4.92732 16.4657
401 1 -1.1104 9.47272 0.738957 17.8603
402 1 -1.1104 9.47273 0.739003 15.0713
410 1 -1.1104 12.2621 0.738861 20.6497
403 1 -1.1104 12.2602 -2.05287 20.6502
408 1 -1.1104 9.47265 0.738835 20.6501
406 1 -1.1104 12.2641 3.53058 20.65
404 1 -1.1104 9.47472 3.53052 20.6496
643 2 2.2208 13.6579 2.13555 19.2551
413 2 2.2208 5.29345 7.71898 16.4657
414 2 2.2208 5.2973 13.3023 16.4655
415 1 -1.1104 1.11021 9.11418 17.8602
416 1 -1.1104 1.11011 9.11432 15.0712
417 1 -1.1104 1.10821 6.32247 17.8607
418 1 -1.1104 1.11198 11.9059 17.8604
419 2 2.2208 5.29546 10.5104 19.255
420 1 -1.1104 1.10822 6.32254 15.0709
421 1 -1.1104 1.11198 11.906 15.0707
422 1 -1.1104 3.89967 9.11398 17.8606
423 2 2.2208 2.50397 7.71893 19.2552
424 2 2.2208 2.50773 13.3021 19.2549
425 1 -1.1104 3.89966 9.1141 15.0708
426 2 2.2208 2.50584 10.5108 16.4656
427 1 -1.1104 3.89775 6.32236 17.8603
428 1 -1.1104 3.90163 11.9056 17.8601
429 1 -1.1104 3.89769 6.32243 15.0713
430 1 -1.1104 3.90152 11.9058 15.0711
445 1 -1.1104 6.68722 6.3223 17.8606
441 1 -1.1104 6.68919 9.11409 15.0712
434 1 -1.1104 3.90159 11.9053 20.6499
432 1 -1.1104 1.10828 6.32229 20.6498
440 1 -1.1104 6.68723 6.32242 15.0708
444 1 -1.1104 6.68928 9.11394 17.8601
443 1 -1.1104 6.69115 11.9056 17.8605
470 1 -1.1104 6.69126 11.9052 20.6494
468 1 -1.1104 6.68729 6.32211 20.6496
435 1 -1.1104 1.11214 11.9055 20.6495
442 1 -1.1104 6.68925 9.11368 20.65
665 2 2.2208 10.8782 16.0933 24.8338
446 1 -1.1104 6.69115 11.9058 15.0707
447 2 2.2208 10.8725 7.71921 16.4656
448 2 2.2208 10.8764 13.3029 16.4654
449 1 -1.1104 12.2683 9.11441 17.8599
450 1 -1.1104 12.2682 9.11464 15.0711
451 1 -1.1104 12.2662 6.32254 17.8605
452 1 -1.1104 12.2702 11.9063 17.8604
453 2 2.2208 10.8745 10.5107 19.2549
454 1 -1.1104 12.2662 6.32271 15.0707
455 1 -1.1104 12.2702 11.9066 15.0705
456 1 -1.1104 9.47875 9.11409 17.8605
457 2 2.2208 8.08302 7.71884 19.2551
458 2 2.2208 8.08692 13.3021 19.2549
459 1 -1.1104 9.47877 9.11429 15.0706
460 2 2.2208 8.08497 10.5107 16.4656
461 1 -1.1104 9.47677 6.32239 17.8601
462 1 -1.1104 9.4808 11.9058 17.8599
463 1 -1.1104 9.47673 6.3225 15.0712
464 1 -1.1104 9.48069 11.9061 15.0711
469 1 -1.1104 12.2703 11.9058 20.6493
465 1 -1.1104 12.2682 9.11406 20.6499
471 1 -1.1104 9.47673 6.32215 20.65
640 2 2.2208 13.6619 7.71919 19.2549
467 1 -1.1104 12.2663 6.32233 20.6494
472 1 -1.1104 9.48072 11.9054 20.6498
466 1 -1.1104 9.47885 9.11381 20.6494
586 1 -1.1104 12.2739 17.4886 23.4392
328 2 2.2208 2.49796 -0.656341 27.6237
348 2 2.2208 13.6638 10.5104 27.6234
560 1 -1.1104 9.48454 17.488 23.4387
473 2 2.2208 5.30101 18.8853 16.4654
474 1 -1.1104 1.11383 14.6975 17.8599
475 1 -1.1104 1.11726 20.2804 17.8599
476 1 -1.1104 1.11371 14.6978 15.0709
477 1 -1.1104 1.11713 20.2811 15.0707
478 1 -1.1104 1.11543 17.489 17.8601
479 2 2.2208 5.29917 16.0934 19.2548
480 2 2.2208 5.30283 21.676 19.2549
481 1 -1.1104 1.11551 17.4894 15.0705
482 1 -1.1104 3.90337 14.6971 17.8603
483 1 -1.1104 3.90692 20.2798 17.8602
484 2 2.2208 2.51128 18.885 19.2547
485 1 -1.1104 3.9034 14.6973 15.0706
486 1 -1.1104 3.90704 20.2803 15.0706
487 2 2.2208 2.50948 16.094 16.4654
488 2 2.2208 2.51298 21.6769 16.4654
489 1 -1.1104 3.90526 17.4885 17.8599
490 1 -1.1104 3.90519 17.4889 15.0709
493 1 -1.1104 1.11563 17.4884 20.6493
502 1 -1.1104 6.695 17.489 15.0705
501 1 -1.1104 6.69688 20.2799 17.8598
499 1 -1.1104 6.69489 17.4886 17.8603
495 1 -1.1104 6.69312 14.6971 17.8599
497 1 -1.1104 3.9071 20.2791 20.6493
492 1 -1.1104 3.9035 14.6967 20.6494
503 1 -1.1104 6.69302 14.6967 20.6498
347 2 2.2208 5.3012 18.8839 27.6233
668 1 -1.1104 9.48639 20.2792 23.4393
529 1 -1.1104 6.69673 20.2792 20.6497
526 1 -1.1104 12.272 14.6976 20.6497
505 1 -1.1104 6.69685 20.2805 15.071
506 1 -1.1104 6.69302 14.6974 15.071
507 2 2.2208 10.8803 18.8868 16.4654
508 1 -1.1104 12.2722 14.6983 17.8598
509 1 -1.1104 12.2761 20.2825 17.8596
510 1 -1.1104 12.2721 14.6987 15.071
511 1 -1.1104 12.276 20.2834 15.0711
512 1 -1.1104 12.274 17.4903 17.8603
513 2 2.2208 10.8783 16.0943 19.2548
514 2 2.2208 10.8821 21.6778 19.2547
515 1 -1.1104 12.2741 17.491 15.0704
516 1 -1.1104 9.48261 14.6976 17.8604
517 1 -1.1104 9.48645 20.2809 17.8604
518 2 2.2208 8.09069 18.8852 19.2548
519 1 -1.1104 9.48267 14.6979 15.0705
520 1 -1.1104 9.48666 20.2817 15.0704
521 2 2.2208 8.0888 16.0941 16.4654
522 2 2.2208 8.09265 21.6774 16.4655
523 1 -1.1104 9.48465 17.4893 17.8598
524 1 -1.1104 9.48459 17.4898 15.0711
530 1 -1.1104 12.2758 20.2812 20.6496
504 1 -1.1104 6.69498 17.488 20.6493
610 1 -1.1104 9.48258 14.6964 26.2283
637 1 -1.1104 9.48257 14.6966 23.4393
527 1 -1.1104 9.48271 14.697 20.6493
528 1 -1.1104 9.48446 17.4885 20.6497
583 2 2.2208 13.6558 -0.656289 22.0447
636 2 2.2208 13.6639 10.5114 16.4655
667 1 -1.1104 12.2721 14.6971 23.4387
373 1 -1.1104 3.8918 -2.05273 20.6499
374 1 -1.1104 1.10621 3.5306 20.6502
536 2 2.2208 5.28945 2.13538 22.0447
537 1 -1.1104 1.10227 -2.05283 23.4393
538 1 -1.1104 1.10625 3.53046 23.4393
539 1 -1.1104 1.10222 -2.05289 26.2292
540 1 -1.1104 1.10624 3.53034 26.2291
541 1 -1.1104 1.10419 0.738814 23.4397
542 2 2.2208 5.28744 -0.656327 24.8342
543 1 -1.1104 1.10422 0.738729 26.2287
544 1 -1.1104 3.89172 -2.05284 23.4397
545 1 -1.1104 3.8957 3.53037 23.4396
546 2 2.2208 2.49998 2.13533 24.8342
547 1 -1.1104 3.8917 -2.0529 26.2288
548 1 -1.1104 3.89576 3.53024 26.2287
549 2 2.2208 2.498 -0.656208 22.0448
550 1 -1.1104 3.89369 0.738772 23.4393
551 1 -1.1104 3.89368 0.738676 26.2291
552 2 2.2208 5.29152 4.92685 24.8341
553 2 2.2208 2.502 4.9271 22.0447
555 1 -1.1104 6.68321 0.738644 26.2287
559 1 -1.1104 6.68123 -2.05286 23.4393
563 1 -1.1104 6.68525 3.53032 23.4392
562 1 -1.1104 6.68316 0.738722 23.4396
331 2 2.2208 5.28949 2.1352 27.6236
405 1 -1.1104 9.47075 -2.0528 20.6498
334 2 2.2208 13.6599 4.92703 27.6235
556 1 -1.1104 6.68525 3.53021 26.2291
380 1 -1.1104 6.68125 -2.05278 20.6502
558 1 -1.1104 6.68116 -2.05293 26.2292
336 2 2.2208 13.6559 -0.656342 27.6236
584 2 2.2208 13.6599 4.92719 22.0445
564 2 2.2208 10.8684 2.1354 22.0446
565 1 -1.1104 12.2601 -2.0529 23.4392
566 1 -1.1104 12.2642 3.53044 23.439
567 1 -1.1104 12.2601 -2.05294 26.2291
568 1 -1.1104 12.2642 3.53035 26.229
569 1 -1.1104 12.2621 0.73875 23.4396
570 2 2.2208 10.8664 -0.656343 24.8341
571 1 -1.1104 12.2621 0.738704 26.2286
572 1 -1.1104 9.47067 -2.05289 23.4397
573 1 -1.1104 9.47469 3.53034 23.4395
574 2 2.2208 8.07896 2.13525 24.8341
575 1 -1.1104 9.47068 -2.05294 26.2287
576 1 -1.1104 9.47476 3.53026 26.2285
577 2 2.2208 8.07695 -0.656258 22.0447
579 1 -1.1104 9.47268 0.738735 23.4392
580 1 -1.1104 9.47266 0.738662 26.2291
581 2 2.2208 10.8705 4.92693 24.834
578 2 2.2208 8.08099 4.927 22.0446
333 2 2.2208 8.08104 4.92679 27.6235
332 2 2.2208 10.8685 2.13526 27.6235
335 2 2.2208 8.07693 -0.656375 27.6237
433 1 -1.1104 3.89979 9.11374 20.6496
436 1 -1.1104 1.11018 9.11394 20.65
431 1 -1.1104 3.89771 6.32217 20.6501
588 2 2.2208 5.29353 7.71859 22.0446
589 2 2.2208 5.29736 13.3016 22.0444
590 1 -1.1104 1.11029 9.11366 23.4391
591 1 -1.1104 1.11021 9.11348 26.229
592 1 -1.1104 1.10824 6.32208 23.4396
593 1 -1.1104 1.11208 11.9052 23.4393
594 2 2.2208 5.29548 10.5099 24.834
595 1 -1.1104 1.10831 6.32194 26.2287
596 1 -1.1104 1.11215 11.905 26.2285
597 1 -1.1104 3.89973 9.11348 23.4395
598 2 2.2208 2.50403 7.7185 24.8341
599 2 2.2208 2.50782 13.3015 24.8339
600 1 -1.1104 3.89977 9.11332 26.2286
601 2 2.2208 2.50595 10.5103 22.0445
602 1 -1.1104 3.89781 6.32195 23.4392
603 1 -1.1104 3.9017 11.905 23.439
604 1 -1.1104 3.89778 6.3218 26.2291
605 1 -1.1104 3.90161 11.9048 26.2289
612 1 -1.1104 6.68731 6.32176 26.2286
340 2 2.2208 5.29732 13.3013 27.6234
608 1 -1.1104 6.68933 9.11344 23.439
615 1 -1.1104 6.68925 9.11327 26.2289
339 2 2.2208 5.29352 7.71832 27.6235
341 2 2.2208 2.50592 10.5099 27.6235
343 2 2.2208 10.8725 7.71851 27.6234
344 2 2.2208 10.8763 13.3017 27.6234
614 1 -1.1104 6.68726 6.32189 23.4395
613 1 -1.1104 6.69118 11.9048 26.2284
611 1 -1.1104 6.69118 11.9049 23.4393
617 1 -1.1104 9.47877 9.11354 23.4394
618 1 -1.1104 12.2701 11.9052 26.2284
619 1 -1.1104 12.2662 6.322 26.2284
620 2 2.2208 10.8745 10.5102 24.8339
621 1 -1.1104 12.2701 11.9054 23.4393
622 1 -1.1104 12.2662 6.3221 23.4394
623 1 -1.1104 12.2682 9.11363 26.2289
624 1 -1.1104 12.2683 9.11378 23.4389
625 1 -1.1104 9.48066 11.9049 26.2288
626 1 -1.1104 9.47677 6.32184 26.2289
627 1 -1.1104 9.48077 11.9051 23.4388
628 1 -1.1104 9.4768 6.32196 23.439
629 2 2.2208 8.08501 10.5102 22.0444
630 1 -1.1104 9.47878 9.11341 26.2284
631 2 2.2208 8.08687 13.3015 24.8338
632 2 2.2208 8.08303 7.71842 24.834
633 2 2.2208 10.8725 7.71874 22.0444
634 2 2.2208 10.8764 13.302 22.0443
342 2 2.2208 8.08494 10.5099 27.6234
534 2 2.2208 13.6619 7.71875 24.8339
329 2 2.2208 2.50202 4.92684 27.6236
585 2 2.2208 8.09069 18.8842 24.8338
639 2 2.2208 10.8822 21.676 24.8338
496 1 -1.1104 3.90518 17.488 20.6497
675 1 -1.1104 6.69687 20.2787 23.4388
491 1 -1.1104 1.11378 14.697 20.6497
494 1 -1.1104 1.11724 20.2797 20.6495
644 2 2.2208 2.51322 21.6755 22.0443
645 1 -1.1104 3.90534 17.4876 23.4388
646 1 -1.1104 1.11565 17.488 23.4391
647 1 -1.1104 3.90351 14.6961 26.2284
648 1 -1.1104 3.90537 17.4874 26.2287
649 2 2.2208 2.51152 18.8841 24.8338
650 1 -1.1104 3.90731 20.2785 26.2284
651 2 2.2208 5.30105 18.8843 22.0443
652 1 -1.1104 1.11396 14.6966 23.4389
653 1 -1.1104 1.11755 20.2791 23.4388
654 2 2.2208 5.29921 16.0927 24.8338
655 2 2.2208 5.30308 21.675 24.8339
656 1 -1.1104 1.11393 14.6964 26.2287
657 1 -1.1104 1.11581 17.4877 26.2283
658 1 -1.1104 1.11771 20.2789 26.2287
659 1 -1.1104 3.90344 14.6963 23.4392
660 1 -1.1104 3.90714 20.2787 23.4392
661 2 2.2208 2.50958 16.0932 22.0443
663 1 -1.1104 9.4865 20.279 26.2283
346 2 2.2208 2.50969 16.0928 27.6233
349 2 2.2208 2.51364 21.6752 27.6234
557 1 -1.1104 6.69311 14.6963 23.4388
345 2 2.2208 8.09279 21.6753 27.6235
350 2 2.2208 8.08875 16.0928 27.6233
666 2 2.2208 10.8802 18.8852 22.0442
638 2 2.2208 8.09258 21.6758 22.0443
525 1 -1.1104 12.2741 17.4894 20.6491
531 1 -1.1104 9.48654 20.28 20.6491
673 1 -1.1104 12.274 17.4883 26.2283
671 1 -1.1104 12.2759 20.2797 26.2289
609 1 -1.1104 9.48449 17.4877 26.2288
532 1 -1.1104 6.69497 17.4874 26.2283
674 1 -1.1104 6.69488 17.4876 23.4392
672 1 -1.1104 6.69303 14.6961 26.2288
664 1 -1.1104 12.276 20.2801 23.4386
662 1 -1.1104 12.272 14.6968 26.2288
535 1 -1.1104 6.69695 20.2785 26.2288
338 2 2.2208 13.6716 21.6767 27.6234
411 2 2.2208 13.6696 18.8853 24.8337
616 2 2.2208 13.6677 16.0956 16.4654
561 2 2.2208 13.6639 10.5107 22.0443
635 2 2.2208 13.6658 13.303 19.2548
587 2 2.2208 13.6715 21.6806 16.4653
606 2 2.2208 13.6696 18.887 19.2546
439 2 2.2208 13.6714 21.6778 22.044
554 2 2.2208 13.6658 13.3021 24.8338
330 2 2.2208 13.6676 16.0937 27.6234
533 2 2.2208 13.6677 16.0942 22.0442
326 2 2.2208 5.28546 -3.44794 27.6237
641 2 2.2208 13.6539 -3.448 24.8342
377 2 2.2208 2.49603 -3.4479 24.8342
500 2 2.2208 5.28566 -3.44774 16.4659
412 2 2.2208 2.49614 -3.4478 19.2554
607 2 2.2208 13.654 -3.44799 19.2553
437 2 2.2208 10.8646 -3.44789 16.4659
498 2 2.2208 8.0751 -3.44782 19.2553
327 2 2.2208 10.8644 -3.44798 27.6237
378 2 2.2208 5.28556 -3.44784 22.0448
371 2 2.2208 8.07498 -3.44792 24.8343
438 2 2.2208 10.8645 -3.44793 22.0448
701 2 2.2208 5.30535 24.4668 5.3085
702 2 2.2208 5.31021 30.0484 5.3093
703 1 -1.1104 1.12186 25.8608 1.12404
704 1 -1.1104 1.12191 25.8615 3.914
705 1 -1.1104 1.11988 23.0701 1.12412
706 1 -1.1104 1.12452 28.6515 1.12482
707 2 2.2208 5.30781 27.2571 2.51944
708 1 -1.1104 1.11964 23.0706 3.91342
709 1 -1.1104 1.12401 28.6523 3.91399
710 1 -1.1104 3.91172 25.8604 1.12461
711 2 2.2208 2.51581 24.4665 2.51891
712 2 2.2208 2.52126 30.0481 2.51971
713 1 -1.1104 3.91145 25.8608 3.91371
714 2 2.2208 2.51787 27.258 5.30876
715 1 -1.1104 3.90941 23.0696 1.12381
716 1 -1.1104 3.91402 28.6509 1.12457
717 1 -1.1104 3.90953 23.07 3.91378
718 1 -1.1104 3.91407 28.6514 3.91465
731 1 -1.1104 6.70392 28.6511 1.12539
729 1 -1.1104 6.70147 25.8608 3.91434
720 1 -1.1104 3.91134 25.8614 6.70359
723 1 -1.1104 3.90917 23.0706 6.70288
721 1 -1.1104 1.12118 25.8627 6.70327
726 1 -1.1104 6.70124 25.8604 1.12417
730 1 -1.1104 6.70364 28.6514 3.91418
728 1 -1.1104 6.69908 23.07 3.91337
727 1 -1.1104 6.6992 23.0696 1.12434
732 1 -1.1104 6.70104 25.8615 6.70321
719 1 -1.1104 3.91319 28.6521 6.70362
724 1 -1.1104 1.11961 23.0714 6.70314
735 2 2.2208 10.8846 24.4686 5.30871
736 2 2.2208 10.889 30.0513 5.30976
737 1 -1.1104 12.2802 25.8623 1.12398
738 1 -1.1104 12.2807 25.8634 3.9146
739 1 -1.1104 12.2782 23.0712 1.12439
740 1 -1.1104 12.2828 28.6533 1.12515
741 2 2.2208 10.8867 27.2588 2.5195
742 1 -1.1104 12.2781 23.072 3.91346
743 1 -1.1104 12.2827 28.6545 3.91428
744 1 -1.1104 9.49102 25.8612 1.12481
745 2 2.2208 8.09504 24.4666 2.51906
746 2 2.2208 8.09985 30.0487 2.52017
747 1 -1.1104 9.49089 25.8618 3.91374
748 2 2.2208 8.09724 27.2583 5.30901
749 1 -1.1104 9.48865 23.0702 1.12379
750 1 -1.1104 9.4932 28.652 1.12463
751 1 -1.1104 9.48893 23.0708 3.91407
752 1 -1.1104 9.49365 28.6527 3.9151
756 1 -1.1104 12.2833 28.6566 6.70508
755 1 -1.1104 9.49119 25.8628 6.70413
758 1 -1.1104 9.48868 23.0716 6.70292
757 1 -1.1104 12.2803 25.865 6.70344
754 1 -1.1104 9.4931 28.6535 6.70381
753 1 -1.1104 12.2785 23.0733 6.70379
986 2 2.2208 2.52234 46.7645 13.6755
9571 2 2.2208 13.676 27.2619 5.30918
761 2 2.2208 5.31792 35.6318 5.31074
762 1 -1.1104 1.12736 31.4418 1.12454
763 1 -1.1104 1.13618 37.0226 1.12517
764 1 -1.1104 1.12731 31.4426 3.91496
765 1 -1.1104 1.13648 37.0236 3.91654
766 1 -1.1104 1.13139 34.2326 1.12611
767 2 2.2208 5.31421 32.8395 2.52092
768 2 2.2208 5.3253 38.4253 2.52356
769 1 -1.1104 1.13103 34.2329 3.91435
770 1 -1.1104 3.91723 31.4417 1.12596
771 1 -1.1104 3.92575 37.0239 1.12846
772 2 2.2208 2.53067 35.6304 2.52103
773 1 -1.1104 3.91679 31.442 3.91453
774 1 -1.1104 3.92516 37.0235 3.91552
775 2 2.2208 2.52455 32.8396 5.30958
776 2 2.2208 2.53678 38.4231 5.3107
777 1 -1.1104 3.92063 34.2322 1.12582
778 1 -1.1104 3.92073 34.2325 3.91625
786 1 -1.1104 6.71042 34.233 1.1276
794 1 -1.1104 6.70999 34.2327 3.91545
783 1 -1.1104 1.12939 34.2343 6.70498
784 1 -1.1104 3.92298 37.0225 6.70654
790 1 -1.1104 6.70568 31.4421 6.70413
780 1 -1.1104 3.9159 31.4421 6.70459
782 1 -1.1104 1.13287 37.0252 6.70431
1017 2 2.2208 8.15626 44.0778 10.8839
779 1 -1.1104 6.7147 37.0235 3.91795
793 1 -1.1104 6.70854 34.2315 6.70562
817 1 -1.1104 9.40075 48.0586 6.70993
785 1 -1.1104 1.12557 31.4444 6.70394
1011 1 -1.1104 12.2694 42.8892 12.293
9780 2 2.2208 13.6833 38.4249 5.30711
9779 2 2.2208 13.6821 35.6333 2.51972
792 1 -1.1104 6.71445 37.0244 1.12748
791 1 -1.1104 6.70649 31.4418 1.12547
789 1 -1.1104 6.7067 31.4419 3.91557
795 2 2.2208 10.8932 35.6339 5.31092
796 1 -1.1104 12.2852 31.4443 1.12497