LAMMPS (29 Oct 2020)
OMP_NUM_THREADS environment is not set. Defaulting to 1 thread. (../comm.cpp:94)
  using 1 OpenMP thread(s) per MPI task
OMP_NUM_THREADS environment is not set. Defaulting to 1 thread. (../comm.cpp:94)
  using 1 OpenMP thread(s) per MPI task
Reading data file ...
  orthogonal box = (-0.27717828 -3.4472206 -0.27717828) to (27.617178 331.52722 27.617178)
  2 by 13 by 2 MPI processor grid
  reading atoms ...
  17644 atoms
Finding 1-2 1-3 1-4 neighbors ...
  special bond factors lj:    0.0      0.0      0.0     
  special bond factors coul:  0.0      0.0      0.0     
     0 = max # of 1-2 neighbors
     0 = max # of 1-3 neighbors
     0 = max # of 1-4 neighbors
     1 = max # of special neighbors
  special bonds CPU = 0.004 seconds
  read_data CPU = 0.047 seconds
Setting atom values ...
  11760 settings made for charge
Setting atom values ...
  5880 settings made for charge
Setting atom values ...
  4 settings made for charge
WARNING: 13 of 1000 force values in table Xe-Xe are inconsistent with -dE/dr.
  Should only be flagged at inflection points (../pair_table.cpp:461)
WARNING: 2 of 1000 force values in table Xe-O are inconsistent with -dE/dr.
  Should only be flagged at inflection points (../pair_table.cpp:461)
WARNING: 2 of 1000 force values in table Xe-Th are inconsistent with -dE/dr.
  Should only be flagged at inflection points (../pair_table.cpp:461)
PPPM initialization ...
  using 12-bit tables for long-range coulomb (../kspace.cpp:328)
  G vector (1/distance) = 0.29912134
  grid = 40 240 40
  stencil order = 5
  estimated absolute RMS force accuracy = 0.0001537511
  estimated relative force accuracy = 1.0677423e-05
  using single precision MKL FFT
  3d grid and FFT values/proc = 18225 7600
Neighbor list info ...
  update every 1 steps, delay 0 steps, check yes
  max neighbors/atom: 2000, page size: 100000
  master list distance cutoff = 13
  ghost atom cutoff = 13
  binsize = 6.5, bins = 5 52 5
  3 neighbor lists, perpetual/occasional/extra = 3 0 0
  (1) pair coul/long, perpetual
      attributes: half, newton on
      pair build: half/bin/newton
      stencil: half/bin/3d/newton
      bin: standard
  (2) pair eam/alloy, perpetual, skip from (1)
      attributes: half, newton on
      pair build: skip
      stencil: none
      bin: none
  (3) pair table, perpetual, skip from (1)
      attributes: half, newton on
      pair build: skip
      stencil: none
      bin: none
Setting up cg style minimization ...
  Unit style    : metal
  Current step  : 0
Per MPI rank memory allocation (min/avg/max) = 11.65 | 12.37 | 12.42 Mbytes
Step Temp E_pair E_mol TotEng Press 
       0            0   -231784.04            0   -231784.04      1054.64 
     324            0   -231784.12            0   -231784.12    1052.9502 
Loop time of 7.66283 on 52 procs for 324 steps with 17644 atoms

99.7% CPU use with 52 MPI tasks x 1 OpenMP threads

Minimization stats:
  Stopping criterion = linesearch alpha is zero
  Energy initial, next-to-last, final = 
     -231784.041582812  -231784.118179205  -231784.118179205
  Force two-norm initial, final = 0.052064018 0.022633884
  Force max component initial, final = 0.0348448 0.0034901244
  Final line search alpha, max atom move = 1.5258789e-05 5.3255072e-08
  Iterations, force evaluations = 324 941

MPI task timing breakdown:
Section |  min time  |  avg time  |  max time  |%varavg| %total
---------------------------------------------------------------
Pair    | 5.6566     | 5.8741     | 6.1436     |   4.1 | 76.66
Bond    | 7.4323e-05 | 0.00011226 | 0.00027889 |   0.0 |  0.00
Kspace  | 1.2978     | 1.5684     | 1.7844     |   7.9 | 20.47
Neigh   | 0.015879   | 0.017722   | 0.01956    |   0.6 |  0.23
Comm    | 0.15404    | 0.15801    | 0.16381    |   0.7 |  2.06
Output  | 0          | 0          | 0          |   0.0 |  0.00
Modify  | 0          | 0          | 0          |   0.0 |  0.00
Other   |            | 0.04456    |            |       |  0.58

Nlocal:        339.308 ave         368 max         305 min
Histogram: 2 1 3 4 7 14 10 7 2 2
Nghost:        5526.27 ave        5710 max        5357 min
Histogram: 16 0 2 2 8 4 3 5 0 12
Neighs:       107596.0 ave      118860 max       95841 min
Histogram: 1 4 4 5 8 14 4 7 3 2

Total # of neighbors = 5594981
Ave neighs/atom = 317.10389
Ave special neighs/atom = 0.0000000
Neighbor list builds = 6
Dangerous builds = 0
Resetting atom IDs ...
PPPM initialization ...
  using 12-bit tables for long-range coulomb (../kspace.cpp:328)
  G vector (1/distance) = 0.29912134
  grid = 40 240 40
  stencil order = 5
  estimated absolute RMS force accuracy = 0.0001537511
  estimated relative force accuracy = 1.0677423e-05
  using single precision MKL FFT
  3d grid and FFT values/proc = 18225 7600
Neighbor list info ...
  update every 1 steps, delay 0 steps, check yes
  max neighbors/atom: 2000, page size: 100000
  master list distance cutoff = 13
  ghost atom cutoff = 13
  binsize = 6.5, bins = 5 52 5
  3 neighbor lists, perpetual/occasional/extra = 3 0 0
  (1) pair coul/long, perpetual
      attributes: half, newton on
      pair build: half/bin/newton
      stencil: half/bin/3d/newton
      bin: standard
  (2) pair eam/alloy, perpetual, skip from (1)
      attributes: half, newton on
      pair build: skip
      stencil: none
      bin: none
  (3) pair table, perpetual, skip from (1)
      attributes: half, newton on
      pair build: skip
      stencil: none
      bin: none
Finding 1-2 1-3 1-4 neighbors ...
  special bond factors lj:    0.0      0.0      0.0     
  special bond factors coul:  0.0      0.0      0.0     
     0 = max # of 1-2 neighbors
     0 = max # of 1-3 neighbors
     0 = max # of 1-4 neighbors
     1 = max # of special neighbors
  special bonds CPU = 0.001 seconds
PPPM initialization ...
  using 12-bit tables for long-range coulomb (../kspace.cpp:328)
  G vector (1/distance) = 0.29912134
  grid = 40 240 40
  stencil order = 5
  estimated absolute RMS force accuracy = 0.0001537511
  estimated relative force accuracy = 1.0677423e-05
  using single precision MKL FFT
  3d grid and FFT values/proc = 18225 7600
Neighbor list info ...
  update every 1 steps, delay 0 steps, check yes
  max neighbors/atom: 2000, page size: 100000
  master list distance cutoff = 13
  ghost atom cutoff = 13
  binsize = 6.5, bins = 5 52 5
  3 neighbor lists, perpetual/occasional/extra = 3 0 0
  (1) pair coul/long, perpetual
      attributes: half, newton on
      pair build: half/bin/newton
      stencil: half/bin/3d/newton
      bin: standard
  (2) pair eam/alloy, perpetual, skip from (1)
      attributes: half, newton on
      pair build: skip
      stencil: none
      bin: none
  (3) pair table, perpetual, skip from (1)
      attributes: half, newton on
      pair build: skip
      stencil: none
      bin: none
Setting up Verlet run ...
  Unit style    : metal
  Current step  : 324
  Time step     : 0.001
Per MPI rank memory allocation (min/avg/max) = 10.52 | 11.25 | 11.30 Mbytes
Step Temp E_pair E_mol TotEng Press 
     324          600   -231784.12            0    -230415.8    6660.3698 
   10324    601.87754   -230480.17            0   -229107.57    26998.333 
Loop time of 71.7721 on 52 procs for 10000 steps with 17644 atoms

Performance: 12.038 ns/day, 1.994 hours/ns, 139.330 timesteps/s
99.8% CPU use with 52 MPI tasks x 1 OpenMP threads

MPI task timing breakdown:
Section |  min time  |  avg time  |  max time  |%varavg| %total
---------------------------------------------------------------
Pair    | 51.68      | 53.601     | 56.252     |  14.8 | 74.68
Bond    | 0.00078543 | 0.0013379  | 0.0020068  |   0.7 |  0.00
Kspace  | 13.265     | 15.812     | 17.609     |  26.6 | 22.03
Neigh   | 0.30335    | 0.33687    | 0.36622    |   2.4 |  0.47
Comm    | 1.4039     | 1.5085     | 1.6981     |   6.2 |  2.10
Output  | 0.0014869  | 0.0019241  | 0.0042831  |   0.9 |  0.00
Modify  | 0.20174    | 0.37067    | 0.54715    |  20.3 |  0.52
Other   |            | 0.1395     |            |       |  0.19

Nlocal:        339.308 ave         366 max         311 min
Histogram: 1 0 3 3 20 10 11 0 1 3
Nghost:        5529.87 ave        5707 max        5357 min
Histogram: 11 5 0 2 9 6 3 2 2 12
Neighs:       108156.0 ave      118569 max       92185 min
Histogram: 1 2 1 4 3 10 15 12 1 3

Total # of neighbors = 5624110
Ave neighs/atom = 318.75482
Ave special neighs/atom = 0.0000000
Neighbor list builds = 111
Dangerous builds = 0
System init for write_data ...
PPPM initialization ...
  using 12-bit tables for long-range coulomb (../kspace.cpp:328)
  G vector (1/distance) = 0.29912134
  grid = 40 240 40
  stencil order = 5
  estimated absolute RMS force accuracy = 0.0001537511
  estimated relative force accuracy = 1.0677423e-05
  using single precision MKL FFT
  3d grid and FFT values/proc = 18225 7600
Neighbor list info ...
  update every 1 steps, delay 0 steps, check yes
  max neighbors/atom: 2000, page size: 100000
  master list distance cutoff = 13
  ghost atom cutoff = 13
  binsize = 6.5, bins = 5 52 5
  3 neighbor lists, perpetual/occasional/extra = 3 0 0
  (1) pair coul/long, perpetual
      attributes: half, newton on
      pair build: half/bin/newton
      stencil: half/bin/3d/newton
      bin: standard
  (2) pair eam/alloy, perpetual, skip from (1)
      attributes: half, newton on
      pair build: skip
      stencil: none
      bin: none
  (3) pair table, perpetual, skip from (1)
      attributes: half, newton on
      pair build: skip
      stencil: none
      bin: none
OMP_NUM_THREADS environment is not set. Defaulting to 1 thread. (../comm.cpp:94)
  using 1 OpenMP thread(s) per MPI task
Reading data file ...
  orthogonal box = (-0.27717828 -3.4472206 -0.27717828) to (27.617178 331.52722 27.617178)
  2 by 13 by 2 MPI processor grid
  reading atoms ...
  17648 atoms
Finding 1-2 1-3 1-4 neighbors ...
  special bond factors lj:    0.0      0.0      0.0     
  special bond factors coul:  0.0      0.0      0.0     
     0 = max # of 1-2 neighbors
     0 = max # of 1-3 neighbors
     0 = max # of 1-4 neighbors
     1 = max # of special neighbors
  special bonds CPU = 0.001 seconds
  read_data CPU = 0.033 seconds
Setting atom values ...
  11760 settings made for charge
Setting atom values ...
  5880 settings made for charge
Setting atom values ...
  8 settings made for charge
WARNING: 13 of 1000 force values in table Xe-Xe are inconsistent with -dE/dr.
  Should only be flagged at inflection points (../pair_table.cpp:461)
WARNING: 2 of 1000 force values in table Xe-O are inconsistent with -dE/dr.
  Should only be flagged at inflection points (../pair_table.cpp:461)
WARNING: 2 of 1000 force values in table Xe-Th are inconsistent with -dE/dr.
  Should only be flagged at inflection points (../pair_table.cpp:461)
PPPM initialization ...
  using 12-bit tables for long-range coulomb (../kspace.cpp:328)
  G vector (1/distance) = 0.29912103
  grid = 40 240 40
  stencil order = 5
  estimated absolute RMS force accuracy = 0.00015373496
  estimated relative force accuracy = 1.0676302e-05
  using single precision MKL FFT
  3d grid and FFT values/proc = 18225 7600
Neighbor list info ...
  update every 1 steps, delay 0 steps, check yes
  max neighbors/atom: 2000, page size: 100000
  master list distance cutoff = 13
  ghost atom cutoff = 13
  binsize = 6.5, bins = 5 52 5
  3 neighbor lists, perpetual/occasional/extra = 3 0 0
  (1) pair coul/long, perpetual
      attributes: half, newton on
      pair build: half/bin/newton
      stencil: half/bin/3d/newton
      bin: standard
  (2) pair eam/alloy, perpetual, skip from (1)
      attributes: half, newton on
      pair build: skip
      stencil: none
      bin: none
  (3) pair table, perpetual, skip from (1)
      attributes: half, newton on
      pair build: skip
      stencil: none
      bin: none
Setting up cg style minimization ...
  Unit style    : metal
  Current step  : 0
Per MPI rank memory allocation (min/avg/max) = 11.65 | 12.36 | 12.43 Mbytes
Step Temp E_pair E_mol TotEng Press 
       0            0   -230472.45            0   -230472.45    21507.748 
     267            0   -231863.95            0   -231863.95   -134.93575 
Loop time of 4.57319 on 52 procs for 267 steps with 17648 atoms

99.8% CPU use with 52 MPI tasks x 1 OpenMP threads

Minimization stats:
  Stopping criterion = linesearch alpha is zero
  Energy initial, next-to-last, final = 
     -230472.451228677  -231863.949039184  -231863.949039184
  Force two-norm initial, final = 205.78917 0.037957354
  Force max component initial, final = 8.3729476 0.0028136027
  Final line search alpha, max atom move = 7.6293945e-06 2.1466085e-08
  Iterations, force evaluations = 267 565

MPI task timing breakdown:
Section |  min time  |  avg time  |  max time  |%varavg| %total
---------------------------------------------------------------
Pair    | 3.4014     | 3.5013     | 3.6872     |   3.5 | 76.56
Bond    | 3.1753e-05 | 5.9118e-05 | 0.00010334 |   0.0 |  0.00
Kspace  | 0.75097    | 0.93908    | 1.0381     |   6.9 | 20.53
Neigh   | 0.016432   | 0.01801    | 0.019809   |   0.6 |  0.39
Comm    | 0.086969   | 0.089728   | 0.092623   |   0.4 |  1.96
Output  | 0          | 0          | 0          |   0.0 |  0.00
Modify  | 0          | 0          | 0          |   0.0 |  0.00
Other   |            | 0.02498    |            |       |  0.55

Nlocal:        339.385 ave         363 max         317 min
Histogram: 1 4 1 12 12 10 5 3 0 4
Nghost:        5533.27 ave        5705 max        5362 min
Histogram: 16 0 0 0 11 5 3 5 0 12
Neighs:       107646.0 ave      116343 max       96924 min
Histogram: 5 1 1 6 7 6 14 2 4 6

Total # of neighbors = 5597582
Ave neighs/atom = 317.17940
Ave special neighs/atom = 0.0000000
Neighbor list builds = 6
Dangerous builds = 0
Resetting atom IDs ...
PPPM initialization ...
  using 12-bit tables for long-range coulomb (../kspace.cpp:328)
  G vector (1/distance) = 0.29912103
  grid = 40 240 40
  stencil order = 5
  estimated absolute RMS force accuracy = 0.00015373496
  estimated relative force accuracy = 1.0676302e-05
  using single precision MKL FFT
  3d grid and FFT values/proc = 18225 7600
Neighbor list info ...
  update every 1 steps, delay 0 steps, check yes
  max neighbors/atom: 2000, page size: 100000
  master list distance cutoff = 13
  ghost atom cutoff = 13
  binsize = 6.5, bins = 5 52 5
  3 neighbor lists, perpetual/occasional/extra = 3 0 0
  (1) pair coul/long, perpetual
      attributes: half, newton on
      pair build: half/bin/newton
      stencil: half/bin/3d/newton
      bin: standard
  (2) pair eam/alloy, perpetual, skip from (1)
      attributes: half, newton on
      pair build: skip
      stencil: none
      bin: none
  (3) pair table, perpetual, skip from (1)
      attributes: half, newton on
      pair build: skip
      stencil: none
      bin: none
Finding 1-2 1-3 1-4 neighbors ...
  special bond factors lj:    0.0      0.0      0.0     
  special bond factors coul:  0.0      0.0      0.0     
     0 = max # of 1-2 neighbors
     0 = max # of 1-3 neighbors
     0 = max # of 1-4 neighbors
     1 = max # of special neighbors
  special bonds CPU = 0.001 seconds
PPPM initialization ...
  using 12-bit tables for long-range coulomb (../kspace.cpp:328)
  G vector (1/distance) = 0.29912103
  grid = 40 240 40
  stencil order = 5
  estimated absolute RMS force accuracy = 0.00015373496
  estimated relative force accuracy = 1.0676302e-05
  using single precision MKL FFT
  3d grid and FFT values/proc = 18225 7600
Neighbor list info ...
  update every 1 steps, delay 0 steps, check yes
  max neighbors/atom: 2000, page size: 100000
  master list distance cutoff = 13
  ghost atom cutoff = 13
  binsize = 6.5, bins = 5 52 5
  3 neighbor lists, perpetual/occasional/extra = 3 0 0
  (1) pair coul/long, perpetual
      attributes: half, newton on
      pair build: half/bin/newton
      stencil: half/bin/3d/newton
      bin: standard
  (2) pair eam/alloy, perpetual, skip from (1)
      attributes: half, newton on
      pair build: skip
      stencil: none
      bin: none
  (3) pair table, perpetual, skip from (1)
      attributes: half, newton on
      pair build: skip
      stencil: none
      bin: none
Setting up Verlet run ...
  Unit style    : metal
  Current step  : 267
  Time step     : 0.001
Per MPI rank memory allocation (min/avg/max) = 10.53 | 11.21 | 11.30 Mbytes
Step Temp E_pair E_mol TotEng Press 
     267          600   -231863.95            0   -230495.32    5473.7552 
   10267    604.39657   -230487.35            0   -229108.68    26841.032 
Loop time of 71.6042 on 52 procs for 10000 steps with 17648 atoms

Performance: 12.066 ns/day, 1.989 hours/ns, 139.657 timesteps/s
99.8% CPU use with 52 MPI tasks x 1 OpenMP threads

MPI task timing breakdown:
Section |  min time  |  avg time  |  max time  |%varavg| %total
---------------------------------------------------------------
Pair    | 51.419     | 53.341     | 56.362     |  15.6 | 74.49
Bond    | 0.00081989 | 0.0013071  | 0.0021476  |   0.7 |  0.00
Kspace  | 13.15      | 16.06      | 17.877     |  27.7 | 22.43
Neigh   | 0.21822    | 0.24098    | 0.26268    |   2.0 |  0.34
Comm    | 1.4007     | 1.4822     | 1.6409     |   5.5 |  2.07
Output  | 0.0017389  | 0.002158   | 0.0050618  |   1.0 |  0.00
Modify  | 0.18972    | 0.33772    | 0.50631    |  20.0 |  0.47
Other   |            | 0.1389     |            |       |  0.19

Nlocal:        339.385 ave         364 max         321 min
Histogram: 2 3 4 17 11 10 0 1 0 4
Nghost:        5526.85 ave        5707 max        5357 min
Histogram: 13 3 0 1 10 9 1 3 0 12
Neighs:       108193.0 ave      117870 max       94982 min
Histogram: 2 1 4 3 1 14 12 11 0 4

Total # of neighbors = 5626059
Ave neighs/atom = 318.79301
Ave special neighs/atom = 0.0000000
Neighbor list builds = 80
Dangerous builds = 0
System init for write_data ...
PPPM initialization ...
  using 12-bit tables for long-range coulomb (../kspace.cpp:328)
  G vector (1/distance) = 0.29912103
  grid = 40 240 40
  stencil order = 5
  estimated absolute RMS force accuracy = 0.00015373496
  estimated relative force accuracy = 1.0676302e-05
  using single precision MKL FFT
  3d grid and FFT values/proc = 18225 7600
Neighbor list info ...
  update every 1 steps, delay 0 steps, check yes
  max neighbors/atom: 2000, page size: 100000
  master list distance cutoff = 13
  ghost atom cutoff = 13
  binsize = 6.5, bins = 5 52 5
  3 neighbor lists, perpetual/occasional/extra = 3 0 0
  (1) pair coul/long, perpetual
      attributes: half, newton on
      pair build: half/bin/newton
      stencil: half/bin/3d/newton
      bin: standard
  (2) pair eam/alloy, perpetual, skip from (1)
      attributes: half, newton on
      pair build: skip
      stencil: none
      bin: none
  (3) pair table, perpetual, skip from (1)
      attributes: half, newton on
      pair build: skip
      stencil: none
      bin: none
OMP_NUM_THREADS environment is not set. Defaulting to 1 thread. (../comm.cpp:94)
  using 1 OpenMP thread(s) per MPI task
Reading data file ...
  orthogonal box = (-0.27717828 -3.4472206 -0.27717828) to (27.617178 331.52722 27.617178)
  2 by 13 by 2 MPI processor grid
  reading atoms ...
  17652 atoms
Finding 1-2 1-3 1-4 neighbors ...
  special bond factors lj:    0.0      0.0      0.0     
  special bond factors coul:  0.0      0.0      0.0     
     0 = max # of 1-2 neighbors
     0 = max # of 1-3 neighbors
     0 = max # of 1-4 neighbors
     1 = max # of special neighbors
  special bonds CPU = 0.001 seconds
  read_data CPU = 0.030 seconds
Setting atom values ...
  11760 settings made for charge
Setting atom values ...
  5880 settings made for charge
Setting atom values ...
  12 settings made for charge
WARNING: 13 of 1000 force values in table Xe-Xe are inconsistent with -dE/dr.
  Should only be flagged at inflection points (../pair_table.cpp:461)
WARNING: 2 of 1000 force values in table Xe-O are inconsistent with -dE/dr.
  Should only be flagged at inflection points (../pair_table.cpp:461)
WARNING: 2 of 1000 force values in table Xe-Th are inconsistent with -dE/dr.
  Should only be flagged at inflection points (../pair_table.cpp:461)
PPPM initialization ...
  using 12-bit tables for long-range coulomb (../kspace.cpp:328)
  G vector (1/distance) = 0.29912072
  grid = 40 240 40
  stencil order = 5
  estimated absolute RMS force accuracy = 0.00015371882
  estimated relative force accuracy = 1.0675182e-05
  using single precision MKL FFT
  3d grid and FFT values/proc = 18225 7600
Neighbor list info ...
  update every 1 steps, delay 0 steps, check yes
  max neighbors/atom: 2000, page size: 100000
  master list distance cutoff = 13
  ghost atom cutoff = 13
  binsize = 6.5, bins = 5 52 5
  3 neighbor lists, perpetual/occasional/extra = 3 0 0
  (1) pair coul/long, perpetual
      attributes: half, newton on
      pair build: half/bin/newton
      stencil: half/bin/3d/newton
      bin: standard
  (2) pair eam/alloy, perpetual, skip from (1)
      attributes: half, newton on
      pair build: skip
      stencil: none
      bin: none
  (3) pair table, perpetual, skip from (1)
      attributes: half, newton on
      pair build: skip
      stencil: none
      bin: none
Setting up cg style minimization ...
  Unit style    : metal
  Current step  : 0
Per MPI rank memory allocation (min/avg/max) = 11.66 | 12.36 | 12.43 Mbytes
Step Temp E_pair E_mol TotEng Press 
       0            0   -230388.23            0   -230388.23    22517.827 
     361            0   -231864.74            0   -231864.74   -153.19056 
Loop time of 6.18682 on 52 procs for 361 steps with 17652 atoms

99.8% CPU use with 52 MPI tasks x 1 OpenMP threads

Minimization stats:
  Stopping criterion = linesearch alpha is zero
  Energy initial, next-to-last, final = 
     -230388.225924949  -231864.735476725  -231864.735476725
  Force two-norm initial, final = 402.14410 0.05266247
  Force max component initial, final = 157.16613 0.0054423823
  Final line search alpha, max atom move = 2.7459077e-06 1.4944279e-08
  Iterations, force evaluations = 361 768

MPI task timing breakdown:
Section |  min time  |  avg time  |  max time  |%varavg| %total
---------------------------------------------------------------
Pair    | 4.6434     | 4.757      | 4.9789     |   3.5 | 76.89
Bond    | 5.3109e-05 | 8.3892e-05 | 0.00012565 |   0.0 |  0.00
Kspace  | 1.0173     | 1.2408     | 1.3519     |   6.9 | 20.06
Neigh   | 0.030385   | 0.032997   | 0.035802   |   0.7 |  0.53
Comm    | 0.12028    | 0.12321    | 0.1272     |   0.5 |  1.99
Output  | 0          | 0          | 0          |   0.0 |  0.00
Modify  | 0          | 0          | 0          |   0.0 |  0.00
Other   |            | 0.03273    |            |       |  0.53

Nlocal:        339.462 ave         363 max         323 min
Histogram: 4 2 4 25 5 2 5 1 0 4
Nghost:        5532.46 ave        5702 max        5365 min
Histogram: 15 1 0 1 8 7 3 5 0 12
Neighs:       107687.0 ave      117093 max       95818 min
Histogram: 4 0 2 4 6 12 16 0 4 4

Total # of neighbors = 5599739
Ave neighs/atom = 317.22972
Ave special neighs/atom = 0.0000000
Neighbor list builds = 11
Dangerous builds = 0
Resetting atom IDs ...
PPPM initialization ...
  using 12-bit tables for long-range coulomb (../kspace.cpp:328)
  G vector (1/distance) = 0.29912072
  grid = 40 240 40
  stencil order = 5
  estimated absolute RMS force accuracy = 0.00015371882
  estimated relative force accuracy = 1.0675182e-05
  using single precision MKL FFT
  3d grid and FFT values/proc = 18225 7600
Neighbor list info ...
  update every 1 steps, delay 0 steps, check yes
  max neighbors/atom: 2000, page size: 100000
  master list distance cutoff = 13
  ghost atom cutoff = 13
  binsize = 6.5, bins = 5 52 5
  3 neighbor lists, perpetual/occasional/extra = 3 0 0
  (1) pair coul/long, perpetual
      attributes: half, newton on
      pair build: half/bin/newton
      stencil: half/bin/3d/newton
      bin: standard
  (2) pair eam/alloy, perpetual, skip from (1)
      attributes: half, newton on
      pair build: skip
      stencil: none
      bin: none
  (3) pair table, perpetual, skip from (1)
      attributes: half, newton on
      pair build: skip
      stencil: none
      bin: none
Finding 1-2 1-3 1-4 neighbors ...
  special bond factors lj:    0.0      0.0      0.0     
  special bond factors coul:  0.0      0.0      0.0     
     0 = max # of 1-2 neighbors
     0 = max # of 1-3 neighbors
     0 = max # of 1-4 neighbors
     1 = max # of special neighbors
  special bonds CPU = 0.001 seconds
PPPM initialization ...
  using 12-bit tables for long-range coulomb (../kspace.cpp:328)
  G vector (1/distance) = 0.29912072
  grid = 40 240 40
  stencil order = 5
  estimated absolute RMS force accuracy = 0.00015371882
  estimated relative force accuracy = 1.0675182e-05
  using single precision MKL FFT
  3d grid and FFT values/proc = 18225 7600
Neighbor list info ...
  update every 1 steps, delay 0 steps, check yes
  max neighbors/atom: 2000, page size: 100000
  master list distance cutoff = 13
  ghost atom cutoff = 13
  binsize = 6.5, bins = 5 52 5
  3 neighbor lists, perpetual/occasional/extra = 3 0 0
  (1) pair coul/long, perpetual
      attributes: half, newton on
      pair build: half/bin/newton
      stencil: half/bin/3d/newton
      bin: standard
  (2) pair eam/alloy, perpetual, skip from (1)
      attributes: half, newton on
      pair build: skip
      stencil: none
      bin: none
  (3) pair table, perpetual, skip from (1)
      attributes: half, newton on
      pair build: skip
      stencil: none
      bin: none
Setting up Verlet run ...
  Unit style    : metal
  Current step  : 361
  Time step     : 0.001
Per MPI rank memory allocation (min/avg/max) = 10.53 | 11.22 | 11.31 Mbytes
Step Temp E_pair E_mol TotEng Press 
     361          600   -231864.74            0   -230495.79    5456.7717 
   10361    603.71066   -230484.79            0   -229107.38     27083.82 
Loop time of 72.0055 on 52 procs for 10000 steps with 17652 atoms

Performance: 11.999 ns/day, 2.000 hours/ns, 138.878 timesteps/s
99.8% CPU use with 52 MPI tasks x 1 OpenMP threads

MPI task timing breakdown:
Section |  min time  |  avg time  |  max time  |%varavg| %total
---------------------------------------------------------------
Pair    | 51.754     | 53.586     | 56.848     |  16.5 | 74.42
Bond    | 0.00075956 | 0.0013326  | 0.0021061  |   0.7 |  0.00
Kspace  | 13.024     | 16.171     | 17.863     |  29.4 | 22.46
Neigh   | 0.22244    | 0.24562    | 0.27016    |   2.1 |  0.34
Comm    | 1.3931     | 1.4963     | 1.67       |   6.2 |  2.08
Output  | 0.0018698  | 0.0023248  | 0.0047659  |   0.9 |  0.00
Modify  | 0.2094     | 0.36625    | 0.53857    |  19.3 |  0.51
Other   |            | 0.1371     |            |       |  0.19

Nlocal:        339.462 ave         367 max         321 min
Histogram: 3 5 6 15 9 7 1 2 2 2
Nghost:        5526.02 ave        5705 max        5358 min
Histogram: 12 4 0 1 13 6 0 4 0 12
Neighs:       108240.0 ave      119340 max       95351 min
Histogram: 4 1 3 4 3 18 9 5 2 3

Total # of neighbors = 5628481
Ave neighs/atom = 318.85798
Ave special neighs/atom = 0.0000000
Neighbor list builds = 81
Dangerous builds = 0
System init for write_data ...
PPPM initialization ...
  using 12-bit tables for long-range coulomb (../kspace.cpp:328)
  G vector (1/distance) = 0.29912072
  grid = 40 240 40
  stencil order = 5
  estimated absolute RMS force accuracy = 0.00015371882
  estimated relative force accuracy = 1.0675182e-05
  using single precision MKL FFT
  3d grid and FFT values/proc = 18225 7600
Neighbor list info ...
  update every 1 steps, delay 0 steps, check yes
  max neighbors/atom: 2000, page size: 100000
  master list distance cutoff = 13
  ghost atom cutoff = 13
  binsize = 6.5, bins = 5 52 5
  3 neighbor lists, perpetual/occasional/extra = 3 0 0
  (1) pair coul/long, perpetual
      attributes: half, newton on
      pair build: half/bin/newton
      stencil: half/bin/3d/newton
      bin: standard
  (2) pair eam/alloy, perpetual, skip from (1)
      attributes: half, newton on
      pair build: skip
      stencil: none
      bin: none
  (3) pair table, perpetual, skip from (1)
      attributes: half, newton on
      pair build: skip
      stencil: none
      bin: none
OMP_NUM_THREADS environment is not set. Defaulting to 1 thread. (../comm.cpp:94)
  using 1 OpenMP thread(s) per MPI task
Reading data file ...
  orthogonal box = (-0.27717828 -3.4472206 -0.27717828) to (27.617178 331.52722 27.617178)
  2 by 13 by 2 MPI processor grid
  reading atoms ...
  17656 atoms
Finding 1-2 1-3 1-4 neighbors ...
  special bond factors lj:    0.0      0.0      0.0     
  special bond factors coul:  0.0      0.0      0.0     
     0 = max # of 1-2 neighbors
     0 = max # of 1-3 neighbors
     0 = max # of 1-4 neighbors
     1 = max # of special neighbors
  special bonds CPU = 0.001 seconds
  read_data CPU = 0.028 seconds
Setting atom values ...
  11760 settings made for charge
Setting atom values ...
  5880 settings made for charge
Setting atom values ...
  16 settings made for charge
WARNING: 13 of 1000 force values in table Xe-Xe are inconsistent with -dE/dr.
  Should only be flagged at inflection points (../pair_table.cpp:461)
WARNING: 2 of 1000 force values in table Xe-O are inconsistent with -dE/dr.
  Should only be flagged at inflection points (../pair_table.cpp:461)
WARNING: 2 of 1000 force values in table Xe-Th are inconsistent with -dE/dr.
  Should only be flagged at inflection points (../pair_table.cpp:461)
PPPM initialization ...
  using 12-bit tables for long-range coulomb (../kspace.cpp:328)
  G vector (1/distance) = 0.29912041
  grid = 40 240 40
  stencil order = 5
  estimated absolute RMS force accuracy = 0.0001537027
  estimated relative force accuracy = 1.0674062e-05
  using single precision MKL FFT
  3d grid and FFT values/proc = 18225 7600
Neighbor list info ...
  update every 1 steps, delay 0 steps, check yes
  max neighbors/atom: 2000, page size: 100000
  master list distance cutoff = 13
  ghost atom cutoff = 13
  binsize = 6.5, bins = 5 52 5
  3 neighbor lists, perpetual/occasional/extra = 3 0 0
  (1) pair coul/long, perpetual
      attributes: half, newton on
      pair build: half/bin/newton
      stencil: half/bin/3d/newton
      bin: standard
  (2) pair eam/alloy, perpetual, skip from (1)
      attributes: half, newton on
      pair build: skip
      stencil: none
      bin: none
  (3) pair table, perpetual, skip from (1)
      attributes: half, newton on
      pair build: skip
      stencil: none
      bin: none
Setting up cg style minimization ...
  Unit style    : metal
  Current step  : 0
Per MPI rank memory allocation (min/avg/max) = 11.65 | 12.35 | 12.43 Mbytes
Step Temp E_pair E_mol TotEng Press 
       0            0   -230299.66            0   -230299.66    23477.441 
     312            0   -231865.11            0   -231865.11   -153.45534 
Loop time of 5.96162 on 52 procs for 312 steps with 17656 atoms

99.8% CPU use with 52 MPI tasks x 1 OpenMP threads

Minimization stats:
  Stopping criterion = linesearch alpha is zero
  Energy initial, next-to-last, final = 
     -230299.658297558  -231865.113265315  -231865.113265315
  Force two-norm initial, final = 778.87598 0.031923069
  Force max component initial, final = 453.50440 0.0062415436
  Final line search alpha, max atom move = 7.6293945e-06 4.7619199e-08
  Iterations, force evaluations = 312 738

MPI task timing breakdown:
Section |  min time  |  avg time  |  max time  |%varavg| %total
---------------------------------------------------------------
Pair    | 4.4957     | 4.5955     | 4.8309     |   3.6 | 77.08
Bond    | 4.5766e-05 | 7.8312e-05 | 0.00013039 |   0.0 |  0.00
Kspace  | 0.96906    | 1.2052     | 1.3053     |   7.1 | 20.22
Neigh   | 0.014015   | 0.015068   | 0.016502   |   0.5 |  0.25
Comm    | 0.11218    | 0.11592    | 0.1196     |   0.5 |  1.94
Output  | 0          | 0          | 0          |   0.0 |  0.00
Modify  | 0          | 0          | 0          |   0.0 |  0.00
Other   |            | 0.02983    |            |       |  0.50

Nlocal:        339.538 ave         364 max         322 min
Histogram: 4 1 9 19 6 3 5 1 0 4
Nghost:        5530.88 ave        5702 max        5362 min
Histogram: 13 3 0 3 8 5 3 5 0 12
Neighs:       107730.0 ave      117751 max       97287 min
Histogram: 3 2 4 4 7 19 4 5 0 4

Total # of neighbors = 5601954
Ave neighs/atom = 317.28330
Ave special neighs/atom = 0.0000000
Neighbor list builds = 5
Dangerous builds = 0
Resetting atom IDs ...
PPPM initialization ...
  using 12-bit tables for long-range coulomb (../kspace.cpp:328)
  G vector (1/distance) = 0.29912041
  grid = 40 240 40
  stencil order = 5
  estimated absolute RMS force accuracy = 0.0001537027
  estimated relative force accuracy = 1.0674062e-05
  using single precision MKL FFT
  3d grid and FFT values/proc = 18225 7600
Neighbor list info ...
  update every 1 steps, delay 0 steps, check yes
  max neighbors/atom: 2000, page size: 100000
  master list distance cutoff = 13
  ghost atom cutoff = 13
  binsize = 6.5, bins = 5 52 5
  3 neighbor lists, perpetual/occasional/extra = 3 0 0
  (1) pair coul/long, perpetual
      attributes: half, newton on
      pair build: half/bin/newton
      stencil: half/bin/3d/newton
      bin: standard
  (2) pair eam/alloy, perpetual, skip from (1)
      attributes: half, newton on
      pair build: skip
      stencil: none
      bin: none
  (3) pair table, perpetual, skip from (1)
      attributes: half, newton on
      pair build: skip
      stencil: none
      bin: none
Finding 1-2 1-3 1-4 neighbors ...
  special bond factors lj:    0.0      0.0      0.0     
  special bond factors coul:  0.0      0.0      0.0     
     0 = max # of 1-2 neighbors
     0 = max # of 1-3 neighbors
     0 = max # of 1-4 neighbors
     1 = max # of special neighbors
  special bonds CPU = 0.001 seconds
PPPM initialization ...
  using 12-bit tables for long-range coulomb (../kspace.cpp:328)
  G vector (1/distance) = 0.29912041
  grid = 40 240 40
  stencil order = 5
  estimated absolute RMS force accuracy = 0.0001537027
  estimated relative force accuracy = 1.0674062e-05
  using single precision MKL FFT
  3d grid and FFT values/proc = 18225 7600
Neighbor list info ...
  update every 1 steps, delay 0 steps, check yes
  max neighbors/atom: 2000, page size: 100000
  master list distance cutoff = 13
  ghost atom cutoff = 13
  binsize = 6.5, bins = 5 52 5
  3 neighbor lists, perpetual/occasional/extra = 3 0 0
  (1) pair coul/long, perpetual
      attributes: half, newton on
      pair build: half/bin/newton
      stencil: half/bin/3d/newton
      bin: standard
  (2) pair eam/alloy, perpetual, skip from (1)
      attributes: half, newton on
      pair build: skip
      stencil: none
      bin: none
  (3) pair table, perpetual, skip from (1)
      attributes: half, newton on
      pair build: skip
      stencil: none
      bin: none
Setting up Verlet run ...
  Unit style    : metal
  Current step  : 312
  Time step     : 0.001
Per MPI rank memory allocation (min/avg/max) = 10.53 | 11.22 | 11.30 Mbytes
Step Temp E_pair E_mol TotEng Press 
     312          600   -231865.11            0   -230495.86    5457.7782 
   10312    604.35338   -230485.29            0   -229106.11    27033.336 
Loop time of 71.5332 on 52 procs for 10000 steps with 17656 atoms

Performance: 12.078 ns/day, 1.987 hours/ns, 139.795 timesteps/s
99.8% CPU use with 52 MPI tasks x 1 OpenMP threads

MPI task timing breakdown:
Section |  min time  |  avg time  |  max time  |%varavg| %total
---------------------------------------------------------------
Pair    | 51.827     | 53.401     | 56.346     |  14.6 | 74.65
Bond    | 0.00088458 | 0.0013855  | 0.002026   |   0.7 |  0.00
Kspace  | 13.064     | 15.91      | 17.389     |  26.3 | 22.24
Neigh   | 0.22166    | 0.24475    | 0.26867    |   2.0 |  0.34
Comm    | 1.3609     | 1.4856     | 1.6896     |   6.3 |  2.08
Output  | 0.0017107  | 0.0021394  | 0.0043578  |   0.9 |  0.00
Modify  | 0.17158    | 0.35213    | 0.52534    |  21.0 |  0.49
Other   |            | 0.1368     |            |       |  0.19

Nlocal:        339.538 ave         366 max         323 min
Histogram: 4 4 7 16 12 3 2 0 1 3
Nghost:        5524.92 ave        5700 max        5364 min
Histogram: 12 4 0 2 12 6 0 4 0 12
Neighs:       108271.0 ave      118446 max       95010 min
Histogram: 2 2 3 3 5 12 15 4 2 4

Total # of neighbors = 5630095
Ave neighs/atom = 318.87715
Ave special neighs/atom = 0.0000000
Neighbor list builds = 81
Dangerous builds = 0
System init for write_data ...
PPPM initialization ...
  using 12-bit tables for long-range coulomb (../kspace.cpp:328)
  G vector (1/distance) = 0.29912041
  grid = 40 240 40
  stencil order = 5
  estimated absolute RMS force accuracy = 0.0001537027
  estimated relative force accuracy = 1.0674062e-05
  using single precision MKL FFT
  3d grid and FFT values/proc = 18225 7600
Neighbor list info ...
  update every 1 steps, delay 0 steps, check yes
  max neighbors/atom: 2000, page size: 100000
  master list distance cutoff = 13
  ghost atom cutoff = 13
  binsize = 6.5, bins = 5 52 5
  3 neighbor lists, perpetual/occasional/extra = 3 0 0
  (1) pair coul/long, perpetual
      attributes: half, newton on
      pair build: half/bin/newton
      stencil: half/bin/3d/newton
      bin: standard
  (2) pair eam/alloy, perpetual, skip from (1)
      attributes: half, newton on
      pair build: skip
      stencil: none
      bin: none
  (3) pair table, perpetual, skip from (1)
      attributes: half, newton on
      pair build: skip
      stencil: none
      bin: none
OMP_NUM_THREADS environment is not set. Defaulting to 1 thread. (../comm.cpp:94)
  using 1 OpenMP thread(s) per MPI task
Reading data file ...
  orthogonal box = (-0.27717828 -3.4472206 -0.27717828) to (27.617178 331.52722 27.617178)
  2 by 13 by 2 MPI processor grid
  reading atoms ...
  17660 atoms
Finding 1-2 1-3 1-4 neighbors ...
  special bond factors lj:    0.0      0.0      0.0     
  special bond factors coul:  0.0      0.0      0.0     
     0 = max # of 1-2 neighbors
     0 = max # of 1-3 neighbors
     0 = max # of 1-4 neighbors
     1 = max # of special neighbors
  special bonds CPU = 0.001 seconds
  read_data CPU = 0.029 seconds
Setting atom values ...
  11760 settings made for charge
Setting atom values ...
  5880 settings made for charge
Setting atom values ...
  20 settings made for charge
WARNING: 13 of 1000 force values in table Xe-Xe are inconsistent with -dE/dr.
  Should only be flagged at inflection points (../pair_table.cpp:461)
WARNING: 2 of 1000 force values in table Xe-O are inconsistent with -dE/dr.
  Should only be flagged at inflection points (../pair_table.cpp:461)
WARNING: 2 of 1000 force values in table Xe-Th are inconsistent with -dE/dr.
  Should only be flagged at inflection points (../pair_table.cpp:461)
PPPM initialization ...
  using 12-bit tables for long-range coulomb (../kspace.cpp:328)
  G vector (1/distance) = 0.29912011
  grid = 40 240 40
  stencil order = 5
  estimated absolute RMS force accuracy = 0.00015368658
  estimated relative force accuracy = 1.0672942e-05
  using single precision MKL FFT
  3d grid and FFT values/proc = 18225 7600
Neighbor list info ...
  update every 1 steps, delay 0 steps, check yes
  max neighbors/atom: 2000, page size: 100000
  master list distance cutoff = 13
  ghost atom cutoff = 13
  binsize = 6.5, bins = 5 52 5
  3 neighbor lists, perpetual/occasional/extra = 3 0 0
  (1) pair coul/long, perpetual
      attributes: half, newton on
      pair build: half/bin/newton
      stencil: half/bin/3d/newton
      bin: standard
  (2) pair eam/alloy, perpetual, skip from (1)
      attributes: half, newton on
      pair build: skip
      stencil: none
      bin: none
  (3) pair table, perpetual, skip from (1)
      attributes: half, newton on
      pair build: skip
      stencil: none
      bin: none
Setting up cg style minimization ...
  Unit style    : metal
  Current step  : 0
Per MPI rank memory allocation (min/avg/max) = 11.66 | 12.36 | 12.43 Mbytes
Step Temp E_pair E_mol TotEng Press 
       0            0    -230448.6            0    -230448.6    21974.874 
     305            0   -231865.59            0   -231865.59   -115.41506 
Loop time of 5.19046 on 52 procs for 305 steps with 17660 atoms

99.8% CPU use with 52 MPI tasks x 1 OpenMP threads

Minimization stats:
  Stopping criterion = linesearch alpha is zero
  Energy initial, next-to-last, final = 
     -230448.602235696  -231865.585868537  -231865.585868537
  Force two-norm initial, final = 235.86482 0.043530593
  Force max component initial, final = 70.871759 0.0090158539
  Final line search alpha, max atom move = 3.8096466e-06 3.4347217e-08
  Iterations, force evaluations = 305 644

MPI task timing breakdown:
Section |  min time  |  avg time  |  max time  |%varavg| %total
---------------------------------------------------------------
Pair    | 3.8817     | 3.9788     | 4.1563     |   3.4 | 76.66
Bond    | 3.8359e-05 | 7.2762e-05 | 0.00013625 |   0.0 |  0.00
Kspace  | 0.86907    | 1.05       | 1.1465     |   6.6 | 20.23
Neigh   | 0.028123   | 0.030039   | 0.032615   |   0.6 |  0.58
Comm    | 0.099908   | 0.10331    | 0.10736    |   0.6 |  1.99
Output  | 0          | 0          | 0          |   0.0 |  0.00
Modify  | 0          | 0          | 0          |   0.0 |  0.00
Other   |            | 0.02822    |            |       |  0.54

Nlocal:        339.615 ave         363 max         318 min
Histogram: 1 0 5 7 21 7 3 4 0 4
Nghost:        5534.73 ave        5702 max        5367 min
Histogram: 14 2 0 0 10 6 2 6 0 12
Neighs:       107774.0 ave      117157 max       97023 min
Histogram: 4 2 1 5 5 14 12 5 0 4

Total # of neighbors = 5604255
Ave neighs/atom = 317.34173
Ave special neighs/atom = 0.0000000
Neighbor list builds = 10
Dangerous builds = 0
Resetting atom IDs ...
PPPM initialization ...
  using 12-bit tables for long-range coulomb (../kspace.cpp:328)
  G vector (1/distance) = 0.29912011
  grid = 40 240 40
  stencil order = 5
  estimated absolute RMS force accuracy = 0.00015368658
  estimated relative force accuracy = 1.0672942e-05
  using single precision MKL FFT
  3d grid and FFT values/proc = 18225 7600
Neighbor list info ...
  update every 1 steps, delay 0 steps, check yes
  max neighbors/atom: 2000, page size: 100000
  master list distance cutoff = 13
  ghost atom cutoff = 13
  binsize = 6.5, bins = 5 52 5
  3 neighbor lists, perpetual/occasional/extra = 3 0 0
  (1) pair coul/long, perpetual
      attributes: half, newton on
      pair build: half/bin/newton
      stencil: half/bin/3d/newton
      bin: standard
  (2) pair eam/alloy, perpetual, skip from (1)
      attributes: half, newton on
      pair build: skip
      stencil: none
      bin: none
  (3) pair table, perpetual, skip from (1)
      attributes: half, newton on
      pair build: skip
      stencil: none
      bin: none
Finding 1-2 1-3 1-4 neighbors ...
  special bond factors lj:    0.0      0.0      0.0     
  special bond factors coul:  0.0      0.0      0.0     
     0 = max # of 1-2 neighbors
     0 = max # of 1-3 neighbors
     0 = max # of 1-4 neighbors
     1 = max # of special neighbors
  special bonds CPU = 0.001 seconds
PPPM initialization ...
  using 12-bit tables for long-range coulomb (../kspace.cpp:328)
  G vector (1/distance) = 0.29912011
  grid = 40 240 40
  stencil order = 5
  estimated absolute RMS force accuracy = 0.00015368658
  estimated relative force accuracy = 1.0672942e-05
  using single precision MKL FFT
  3d grid and FFT values/proc = 18225 7600
Neighbor list info ...
  update every 1 steps, delay 0 steps, check yes
  max neighbors/atom: 2000, page size: 100000
  master list distance cutoff = 13
  ghost atom cutoff = 13
  binsize = 6.5, bins = 5 52 5
  3 neighbor lists, perpetual/occasional/extra = 3 0 0
  (1) pair coul/long, perpetual
      attributes: half, newton on
      pair build: half/bin/newton
      stencil: half/bin/3d/newton
      bin: standard
  (2) pair eam/alloy, perpetual, skip from (1)
      attributes: half, newton on
      pair build: skip
      stencil: none
      bin: none
  (3) pair table, perpetual, skip from (1)
      attributes: half, newton on
      pair build: skip
      stencil: none
      bin: none
Setting up Verlet run ...
  Unit style    : metal
  Current step  : 305
  Time step     : 0.001
Per MPI rank memory allocation (min/avg/max) = 10.53 | 11.22 | 11.31 Mbytes
Step Temp E_pair E_mol TotEng Press 
     305          600   -231865.59            0   -230496.02    5497.0897 
   10305    602.51905   -230482.72            0   -229107.41    27503.084 
Loop time of 71.4687 on 52 procs for 10000 steps with 17660 atoms

Performance: 12.089 ns/day, 1.985 hours/ns, 139.921 timesteps/s
99.8% CPU use with 52 MPI tasks x 1 OpenMP threads

MPI task timing breakdown:
Section |  min time  |  avg time  |  max time  |%varavg| %total
---------------------------------------------------------------
Pair    | 51.856     | 53.445     | 56.218     |  14.2 | 74.78
Bond    | 0.00082356 | 0.0013848  | 0.001945   |   0.6 |  0.00
Kspace  | 13.109     | 15.775     | 17.202     |  25.4 | 22.07
Neigh   | 0.23271    | 0.25501    | 0.2772     |   1.9 |  0.36
Comm    | 1.3973     | 1.4856     | 1.6799     |   6.3 |  2.08
Output  | 0.0016996  | 0.0021012  | 0.0046684  |   0.9 |  0.00
Modify  | 0.20519    | 0.36862    | 0.55787    |  20.3 |  0.52
Other   |            | 0.1369     |            |       |  0.19

Nlocal:        339.615 ave         368 max         316 min
Histogram: 1 1 5 12 14 11 4 0 3 1
Nghost:        5531.33 ave        5707 max        5361 min
Histogram: 11 5 0 1 10 9 2 2 0 12
Neighs:       108321.0 ave      119689 max       93522 min
Histogram: 1 1 2 7 3 16 11 7 2 2

Total # of neighbors = 5632685
Ave neighs/atom = 318.95159
Ave special neighs/atom = 0.0000000
Neighbor list builds = 84
Dangerous builds = 0
System init for write_data ...
PPPM initialization ...
  using 12-bit tables for long-range coulomb (../kspace.cpp:328)
  G vector (1/distance) = 0.29912011
  grid = 40 240 40
  stencil order = 5
  estimated absolute RMS force accuracy = 0.00015368658
  estimated relative force accuracy = 1.0672942e-05
  using single precision MKL FFT
  3d grid and FFT values/proc = 18225 7600
Neighbor list info ...
  update every 1 steps, delay 0 steps, check yes
  max neighbors/atom: 2000, page size: 100000
  master list distance cutoff = 13
  ghost atom cutoff = 13
  binsize = 6.5, bins = 5 52 5
  3 neighbor lists, perpetual/occasional/extra = 3 0 0
  (1) pair coul/long, perpetual
      attributes: half, newton on
      pair build: half/bin/newton
      stencil: half/bin/3d/newton
      bin: standard
  (2) pair eam/alloy, perpetual, skip from (1)
      attributes: half, newton on
      pair build: skip
      stencil: none
      bin: none
  (3) pair table, perpetual, skip from (1)
      attributes: half, newton on
      pair build: skip
      stencil: none
      bin: none
OMP_NUM_THREADS environment is not set. Defaulting to 1 thread. (../comm.cpp:94)
  using 1 OpenMP thread(s) per MPI task
Reading data file ...
  orthogonal box = (-0.27717828 -3.4472206 -0.27717828) to (27.617178 331.52722 27.617178)
  2 by 13 by 2 MPI processor grid
  reading atoms ...
  17664 atoms
Finding 1-2 1-3 1-4 neighbors ...
  special bond factors lj:    0.0      0.0      0.0     
  special bond factors coul:  0.0      0.0      0.0     
     0 = max # of 1-2 neighbors
     0 = max # of 1-3 neighbors
     0 = max # of 1-4 neighbors
     1 = max # of special neighbors
  special bonds CPU = 0.001 seconds
  read_data CPU = 0.028 seconds
Setting atom values ...
  11760 settings made for charge
Setting atom values ...
  5880 settings made for charge
Setting atom values ...
  24 settings made for charge
WARNING: 13 of 1000 force values in table Xe-Xe are inconsistent with -dE/dr.
  Should only be flagged at inflection points (../pair_table.cpp:461)
WARNING: 2 of 1000 force values in table Xe-O are inconsistent with -dE/dr.
  Should only be flagged at inflection points (../pair_table.cpp:461)
WARNING: 2 of 1000 force values in table Xe-Th are inconsistent with -dE/dr.
  Should only be flagged at inflection points (../pair_table.cpp:461)
PPPM initialization ...
  using 12-bit tables for long-range coulomb (../kspace.cpp:328)
  G vector (1/distance) = 0.2991198
  grid = 40 240 40
  stencil order = 5
  estimated absolute RMS force accuracy = 0.00015367046
  estimated relative force accuracy = 1.0671823e-05
  using single precision MKL FFT
  3d grid and FFT values/proc = 18225 7600
Neighbor list info ...
  update every 1 steps, delay 0 steps, check yes
  max neighbors/atom: 2000, page size: 100000
  master list distance cutoff = 13
  ghost atom cutoff = 13
  binsize = 6.5, bins = 5 52 5
  3 neighbor lists, perpetual/occasional/extra = 3 0 0
  (1) pair coul/long, perpetual
      attributes: half, newton on
      pair build: half/bin/newton
      stencil: half/bin/3d/newton
      bin: standard
  (2) pair eam/alloy, perpetual, skip from (1)
      attributes: half, newton on
      pair build: skip
      stencil: none
      bin: none
  (3) pair table, perpetual, skip from (1)
      attributes: half, newton on
      pair build: skip
      stencil: none
      bin: none
Setting up cg style minimization ...
  Unit style    : metal
  Current step  : 0
Per MPI rank memory allocation (min/avg/max) = 11.65 | 12.38 | 12.43 Mbytes
Step Temp E_pair E_mol TotEng Press 
       0            0   -229548.86            0   -229548.86    29514.202 
     317            0   -231865.68            0   -231865.68   -85.398064 
Loop time of 5.91479 on 52 procs for 317 steps with 17664 atoms

99.8% CPU use with 52 MPI tasks x 1 OpenMP threads

Minimization stats:
  Stopping criterion = linesearch alpha is zero
  Energy initial, next-to-last, final = 
     -229548.862030302  -231865.678483712  -231865.678483712
  Force two-norm initial, final = 3529.5952 0.017500154
  Force max component initial, final = 2429.7922 0.001256769
  Final line search alpha, max atom move = 3.0517578e-05 3.8353545e-08
  Iterations, force evaluations = 317 725

MPI task timing breakdown:
Section |  min time  |  avg time  |  max time  |%varavg| %total
---------------------------------------------------------------
Pair    | 4.3825     | 4.5182     | 4.7572     |   4.3 | 76.39
Bond    | 4.8613e-05 | 8.042e-05  | 0.00014929 |   0.0 |  0.00
Kspace  | 0.98322    | 1.2244     | 1.3596     |   8.2 | 20.70
Neigh   | 0.024367   | 0.027118   | 0.029496   |   0.6 |  0.46
Comm    | 0.11119    | 0.1148     | 0.11885    |   0.5 |  1.94
Output  | 0          | 0          | 0          |   0.0 |  0.00
Modify  | 0          | 0          | 0          |   0.0 |  0.00
Other   |            | 0.0302     |            |       |  0.51

Nlocal:        339.692 ave         363 max         323 min
Histogram: 2 2 6 24 6 2 5 1 0 4
Nghost:        5535.06 ave        5704 max        5363 min
Histogram: 11 5 0 0 10 6 4 4 0 12
Neighs:       107815.0 ave      117236 max       96194 min
Histogram: 2 2 3 5 5 16 10 5 0 4

Total # of neighbors = 5606362
Ave neighs/atom = 317.38915
Ave special neighs/atom = 0.0000000
Neighbor list builds = 9
Dangerous builds = 0
Resetting atom IDs ...
PPPM initialization ...
  using 12-bit tables for long-range coulomb (../kspace.cpp:328)
  G vector (1/distance) = 0.2991198
  grid = 40 240 40
  stencil order = 5
  estimated absolute RMS force accuracy = 0.00015367046
  estimated relative force accuracy = 1.0671823e-05
  using single precision MKL FFT
  3d grid and FFT values/proc = 18225 7600
Neighbor list info ...
  update every 1 steps, delay 0 steps, check yes
  max neighbors/atom: 2000, page size: 100000
  master list distance cutoff = 13
  ghost atom cutoff = 13
  binsize = 6.5, bins = 5 52 5
  3 neighbor lists, perpetual/occasional/extra = 3 0 0
  (1) pair coul/long, perpetual
      attributes: half, newton on
      pair build: half/bin/newton
      stencil: half/bin/3d/newton
      bin: standard
  (2) pair eam/alloy, perpetual, skip from (1)
      attributes: half, newton on
      pair build: skip
      stencil: none
      bin: none
  (3) pair table, perpetual, skip from (1)
      attributes: half, newton on
      pair build: skip
      stencil: none
      bin: none
Finding 1-2 1-3 1-4 neighbors ...
  special bond factors lj:    0.0      0.0      0.0     
  special bond factors coul:  0.0      0.0      0.0     
     0 = max # of 1-2 neighbors
     0 = max # of 1-3 neighbors
     0 = max # of 1-4 neighbors
     1 = max # of special neighbors
  special bonds CPU = 0.001 seconds
PPPM initialization ...
  using 12-bit tables for long-range coulomb (../kspace.cpp:328)
  G vector (1/distance) = 0.2991198
  grid = 40 240 40
  stencil order = 5
  estimated absolute RMS force accuracy = 0.00015367046
  estimated relative force accuracy = 1.0671823e-05
  using single precision MKL FFT
  3d grid and FFT values/proc = 18225 7600
Neighbor list info ...
  update every 1 steps, delay 0 steps, check yes
  max neighbors/atom: 2000, page size: 100000
  master list distance cutoff = 13
  ghost atom cutoff = 13
  binsize = 6.5, bins = 5 52 5
  3 neighbor lists, perpetual/occasional/extra = 3 0 0
  (1) pair coul/long, perpetual
      attributes: half, newton on
      pair build: half/bin/newton
      stencil: half/bin/3d/newton
      bin: standard
  (2) pair eam/alloy, perpetual, skip from (1)
      attributes: half, newton on
      pair build: skip
      stencil: none
      bin: none
  (3) pair table, perpetual, skip from (1)
      attributes: half, newton on
      pair build: skip
      stencil: none
      bin: none
Setting up Verlet run ...
  Unit style    : metal
  Current step  : 317
  Time step     : 0.001
Per MPI rank memory allocation (min/avg/max) = 10.52 | 11.24 | 11.30 Mbytes
Step Temp E_pair E_mol TotEng Press 
     317          600   -231865.68            0   -230495.81    5528.3781 
   10317    602.04819   -230477.48            0   -229102.93    27401.014 
Loop time of 71.4642 on 52 procs for 10000 steps with 17664 atoms

Performance: 12.090 ns/day, 1.985 hours/ns, 139.930 timesteps/s
99.8% CPU use with 52 MPI tasks x 1 OpenMP threads

MPI task timing breakdown:
Section |  min time  |  avg time  |  max time  |%varavg| %total
---------------------------------------------------------------
Pair    | 51.78      | 53.323     | 56.276     |  14.9 | 74.62
Bond    | 0.00088195 | 0.0013834  | 0.0018618  |   0.6 |  0.00
Kspace  | 13.11      | 15.94      | 17.359     |  26.8 | 22.31
Neigh   | 0.21708    | 0.23828    | 0.2576     |   1.8 |  0.33
Comm    | 1.3719     | 1.4773     | 1.6827     |   6.3 |  2.07
Output  | 0.0017861  | 0.0021889  | 0.0048126  |   0.9 |  0.00
Modify  | 0.19146    | 0.3448     | 0.51492    |  19.9 |  0.48
Other   |            | 0.1367     |            |       |  0.19

Nlocal:        339.692 ave         364 max         323 min
Histogram: 3 6 7 13 11 4 3 1 0 4
Nghost:        5525.10 ave        5699 max        5366 min
Histogram: 10 6 0 4 10 6 0 4 0 12
Neighs:       108365.0 ave      117992 max       95585 min
Histogram: 3 1 2 5 2 10 18 6 1 4

Total # of neighbors = 5634960
Ave neighs/atom = 319.00815
Ave special neighs/atom = 0.0000000
Neighbor list builds = 79
Dangerous builds = 0
System init for write_data ...
PPPM initialization ...
  using 12-bit tables for long-range coulomb (../kspace.cpp:328)
  G vector (1/distance) = 0.2991198
  grid = 40 240 40
  stencil order = 5
  estimated absolute RMS force accuracy = 0.00015367046
  estimated relative force accuracy = 1.0671823e-05
  using single precision MKL FFT
  3d grid and FFT values/proc = 18225 7600
Neighbor list info ...
  update every 1 steps, delay 0 steps, check yes
  max neighbors/atom: 2000, page size: 100000
  master list distance cutoff = 13
  ghost atom cutoff = 13
  binsize = 6.5, bins = 5 52 5
  3 neighbor lists, perpetual/occasional/extra = 3 0 0
  (1) pair coul/long, perpetual
      attributes: half, newton on
      pair build: half/bin/newton
      stencil: half/bin/3d/newton
      bin: standard
  (2) pair eam/alloy, perpetual, skip from (1)
      attributes: half, newton on
      pair build: skip
      stencil: none
      bin: none
  (3) pair table, perpetual, skip from (1)
      attributes: half, newton on
      pair build: skip
      stencil: none
      bin: none
OMP_NUM_THREADS environment is not set. Defaulting to 1 thread. (../comm.cpp:94)
  using 1 OpenMP thread(s) per MPI task
Reading data file ...
  orthogonal box = (-0.27717828 -3.4472206 -0.27717828) to (27.617178 331.52722 27.617178)
  2 by 13 by 2 MPI processor grid
  reading atoms ...
  17668 atoms
Finding 1-2 1-3 1-4 neighbors ...
  special bond factors lj:    0.0      0.0      0.0     
  special bond factors coul:  0.0      0.0      0.0     
     0 = max # of 1-2 neighbors
     0 = max # of 1-3 neighbors
     0 = max # of 1-4 neighbors
     1 = max # of special neighbors
  special bonds CPU = 0.001 seconds
  read_data CPU = 0.028 seconds
Setting atom values ...
  11760 settings made for charge
Setting atom values ...
  5880 settings made for charge
Setting atom values ...
  28 settings made for charge
WARNING: 13 of 1000 force values in table Xe-Xe are inconsistent with -dE/dr.
  Should only be flagged at inflection points (../pair_table.cpp:461)
WARNING: 2 of 1000 force values in table Xe-O are inconsistent with -dE/dr.
  Should only be flagged at inflection points (../pair_table.cpp:461)
WARNING: 2 of 1000 force values in table Xe-Th are inconsistent with -dE/dr.
  Should only be flagged at inflection points (../pair_table.cpp:461)
PPPM initialization ...
  using 12-bit tables for long-range coulomb (../kspace.cpp:328)
  G vector (1/distance) = 0.29911949
  grid = 40 240 40
  stencil order = 5
  estimated absolute RMS force accuracy = 0.00015365435
  estimated relative force accuracy = 1.0670704e-05
  using single precision MKL FFT
  3d grid and FFT values/proc = 18225 7600
Neighbor list info ...
  update every 1 steps, delay 0 steps, check yes
  max neighbors/atom: 2000, page size: 100000
  master list distance cutoff = 13
  ghost atom cutoff = 13
  binsize = 6.5, bins = 5 52 5
  3 neighbor lists, perpetual/occasional/extra = 3 0 0
  (1) pair coul/long, perpetual
      attributes: half, newton on
      pair build: half/bin/newton
      stencil: half/bin/3d/newton
      bin: standard
  (2) pair eam/alloy, perpetual, skip from (1)
      attributes: half, newton on
      pair build: skip
      stencil: none
      bin: none
  (3) pair table, perpetual, skip from (1)
      attributes: half, newton on
      pair build: skip
      stencil: none
      bin: none
Setting up cg style minimization ...
  Unit style    : metal
  Current step  : 0
Per MPI rank memory allocation (min/avg/max) = 11.66 | 12.35 | 12.43 Mbytes
Step Temp E_pair E_mol TotEng Press 
       0            0    -230255.6            0    -230255.6    24397.486 
     292            0    -231866.3            0    -231866.3   -137.75644 
Loop time of 5.14602 on 52 procs for 292 steps with 17668 atoms

99.8% CPU use with 52 MPI tasks x 1 OpenMP threads

Minimization stats:
  Stopping criterion = linesearch alpha is zero
  Energy initial, next-to-last, final = 
     -230255.601934398  -231866.304165534  -231866.304165534
  Force two-norm initial, final = 718.85243 0.0282024
  Force max component initial, final = 308.12144 0.0028923346
  Final line search alpha, max atom move = 1.5258789e-05 4.4133523e-08
  Iterations, force evaluations = 292 639

MPI task timing breakdown:
Section |  min time  |  avg time  |  max time  |%varavg| %total
---------------------------------------------------------------
Pair    | 3.8471     | 3.9537     | 4.1208     |   3.2 | 76.83
Bond    | 3.9468e-05 | 7.5627e-05 | 0.00014778 |   0.0 |  0.00
Kspace  | 0.86382    | 1.0334     | 1.1385     |   6.3 | 20.08
Neigh   | 0.02184    | 0.023802   | 0.025876   |   0.5 |  0.46
Comm    | 0.099414   | 0.10276    | 0.10609    |   0.5 |  2.00
Output  | 0          | 0          | 0          |   0.0 |  0.00
Modify  | 0          | 0          | 0          |   0.0 |  0.00
Other   |            | 0.03229    |            |       |  0.63

Nlocal:        339.769 ave         363 max         321 min
Histogram: 3 1 3 17 14 5 5 0 0 4
Nghost:        5534.62 ave        5702 max        5369 min
Histogram: 14 2 0 2 7 7 3 5 0 12
Neighs:       107859.0 ave      117174 max       95635 min
Histogram: 2 2 4 3 2 10 20 5 0 4

Total # of neighbors = 5608678
Ave neighs/atom = 317.44838
Ave special neighs/atom = 0.0000000
Neighbor list builds = 8
Dangerous builds = 0
Resetting atom IDs ...
PPPM initialization ...
  using 12-bit tables for long-range coulomb (../kspace.cpp:328)
  G vector (1/distance) = 0.29911949
  grid = 40 240 40
  stencil order = 5
  estimated absolute RMS force accuracy = 0.00015365435
  estimated relative force accuracy = 1.0670704e-05
  using single precision MKL FFT
  3d grid and FFT values/proc = 18225 7600
Neighbor list info ...
  update every 1 steps, delay 0 steps, check yes
  max neighbors/atom: 2000, page size: 100000
  master list distance cutoff = 13
  ghost atom cutoff = 13
  binsize = 6.5, bins = 5 52 5
  3 neighbor lists, perpetual/occasional/extra = 3 0 0
  (1) pair coul/long, perpetual
      attributes: half, newton on
      pair build: half/bin/newton
      stencil: half/bin/3d/newton
      bin: standard
  (2) pair eam/alloy, perpetual, skip from (1)
      attributes: half, newton on
      pair build: skip
      stencil: none
      bin: none
  (3) pair table, perpetual, skip from (1)
      attributes: half, newton on
      pair build: skip
      stencil: none
      bin: none
Finding 1-2 1-3 1-4 neighbors ...
  special bond factors lj:    0.0      0.0      0.0     
  special bond factors coul:  0.0      0.0      0.0     
     0 = max # of 1-2 neighbors
     0 = max # of 1-3 neighbors
     0 = max # of 1-4 neighbors
     1 = max # of special neighbors
  special bonds CPU = 0.001 seconds
PPPM initialization ...
  using 12-bit tables for long-range coulomb (../kspace.cpp:328)
  G vector (1/distance) = 0.29911949
  grid = 40 240 40
  stencil order = 5
  estimated absolute RMS force accuracy = 0.00015365435
  estimated relative force accuracy = 1.0670704e-05
  using single precision MKL FFT
  3d grid and FFT values/proc = 18225 7600
Neighbor list info ...
  update every 1 steps, delay 0 steps, check yes
  max neighbors/atom: 2000, page size: 100000
  master list distance cutoff = 13
  ghost atom cutoff = 13
  binsize = 6.5, bins = 5 52 5
  3 neighbor lists, perpetual/occasional/extra = 3 0 0
  (1) pair coul/long, perpetual
      attributes: half, newton on
      pair build: half/bin/newton
      stencil: half/bin/3d/newton
      bin: standard
  (2) pair eam/alloy, perpetual, skip from (1)
      attributes: half, newton on
      pair build: skip
      stencil: none
      bin: none
  (3) pair table, perpetual, skip from (1)
      attributes: half, newton on
      pair build: skip
      stencil: none
      bin: none
Setting up Verlet run ...
  Unit style    : metal
  Current step  : 292
  Time step     : 0.001
Per MPI rank memory allocation (min/avg/max) = 10.53 | 11.24 | 11.31 Mbytes
Step Temp E_pair E_mol TotEng Press 
     292          600    -231866.3            0   -230496.12     5477.291 
   10292    603.80127   -230484.18            0   -229105.32    27163.811 
Loop time of 71.7624 on 52 procs for 10000 steps with 17668 atoms

Performance: 12.040 ns/day, 1.993 hours/ns, 139.349 timesteps/s
99.8% CPU use with 52 MPI tasks x 1 OpenMP threads

MPI task timing breakdown:
Section |  min time  |  avg time  |  max time  |%varavg| %total
---------------------------------------------------------------
Pair    | 51.866     | 53.586     | 56.448     |  14.7 | 74.67
Bond    | 0.00090695 | 0.0014666  | 0.0050005  |   1.4 |  0.00
Kspace  | 13.186     | 15.924     | 17.515     |  26.2 | 22.19
Neigh   | 0.22683    | 0.24902    | 0.27326    |   1.9 |  0.35
Comm    | 1.3753     | 1.4941     | 1.7053     |   6.3 |  2.08
Output  | 0.0019043  | 0.0023327  | 0.0081797  |   1.7 |  0.00
Modify  | 0.21056    | 0.36531    | 0.54343    |  20.0 |  0.51
Other   |            | 0.14       |            |       |  0.20

Nlocal:        339.769 ave         364 max         323 min
Histogram: 4 3 9 11 13 6 2 0 0 4
Nghost:        5533.62 ave        5700 max        5368 min
Histogram: 10 6 0 0 7 13 0 4 0 12
Neighs:       108403.0 ave      117857 max       95299 min
Histogram: 3 2 2 0 8 10 16 6 1 4

Total # of neighbors = 5636980
Ave neighs/atom = 319.05026
Ave special neighs/atom = 0.0000000
Neighbor list builds = 82
Dangerous builds = 0
System init for write_data ...
PPPM initialization ...
  using 12-bit tables for long-range coulomb (../kspace.cpp:328)
  G vector (1/distance) = 0.29911949
  grid = 40 240 40
  stencil order = 5
  estimated absolute RMS force accuracy = 0.00015365435
  estimated relative force accuracy = 1.0670704e-05
  using single precision MKL FFT
  3d grid and FFT values/proc = 18225 7600
Neighbor list info ...
  update every 1 steps, delay 0 steps, check yes
  max neighbors/atom: 2000, page size: 100000
  master list distance cutoff = 13
  ghost atom cutoff = 13
  binsize = 6.5, bins = 5 52 5
  3 neighbor lists, perpetual/occasional/extra = 3 0 0
  (1) pair coul/long, perpetual
      attributes: half, newton on
      pair build: half/bin/newton
      stencil: half/bin/3d/newton
      bin: standard
  (2) pair eam/alloy, perpetual, skip from (1)
      attributes: half, newton on
      pair build: skip
      stencil: none
      bin: none
  (3) pair table, perpetual, skip from (1)
      attributes: half, newton on
      pair build: skip
      stencil: none
      bin: none
OMP_NUM_THREADS environment is not set. Defaulting to 1 thread. (../comm.cpp:94)
  using 1 OpenMP thread(s) per MPI task
Reading data file ...
  orthogonal box = (-0.27717828 -3.4472206 -0.27717828) to (27.617178 331.52722 27.617178)
  2 by 13 by 2 MPI processor grid
  reading atoms ...
  17672 atoms
Finding 1-2 1-3 1-4 neighbors ...
  special bond factors lj:    0.0      0.0      0.0     
  special bond factors coul:  0.0      0.0      0.0     
     0 = max # of 1-2 neighbors
     0 = max # of 1-3 neighbors
     0 = max # of 1-4 neighbors
     1 = max # of special neighbors
  special bonds CPU = 0.001 seconds
  read_data CPU = 0.032 seconds
Setting atom values ...
  11760 settings made for charge
Setting atom values ...
  5880 settings made for charge
Setting atom values ...
  32 settings made for charge
WARNING: 13 of 1000 force values in table Xe-Xe are inconsistent with -dE/dr.
  Should only be flagged at inflection points (../pair_table.cpp:461)
WARNING: 2 of 1000 force values in table Xe-O are inconsistent with -dE/dr.
  Should only be flagged at inflection points (../pair_table.cpp:461)
WARNING: 2 of 1000 force values in table Xe-Th are inconsistent with -dE/dr.
  Should only be flagged at inflection points (../pair_table.cpp:461)
PPPM initialization ...
  using 12-bit tables for long-range coulomb (../kspace.cpp:328)
  G vector (1/distance) = 0.29911918
  grid = 40 240 40
  stencil order = 5
  estimated absolute RMS force accuracy = 0.00015363825
  estimated relative force accuracy = 1.0669586e-05
  using single precision MKL FFT
  3d grid and FFT values/proc = 18225 7600
Neighbor list info ...
  update every 1 steps, delay 0 steps, check yes
  max neighbors/atom: 2000, page size: 100000
  master list distance cutoff = 13
  ghost atom cutoff = 13
  binsize = 6.5, bins = 5 52 5
  3 neighbor lists, perpetual/occasional/extra = 3 0 0
  (1) pair coul/long, perpetual
      attributes: half, newton on
      pair build: half/bin/newton
      stencil: half/bin/3d/newton
      bin: standard
  (2) pair eam/alloy, perpetual, skip from (1)
      attributes: half, newton on
      pair build: skip
      stencil: none
      bin: none
  (3) pair table, perpetual, skip from (1)
      attributes: half, newton on
      pair build: skip
      stencil: none
      bin: none
Setting up cg style minimization ...
  Unit style    : metal
  Current step  : 0
Per MPI rank memory allocation (min/avg/max) = 11.66 | 12.37 | 12.43 Mbytes
Step Temp E_pair E_mol TotEng Press 
       0            0   -230322.08            0   -230322.08    23645.451 
     310            0   -231867.41            0   -231867.41   -175.39246 
Loop time of 5.37535 on 52 procs for 310 steps with 17672 atoms

99.8% CPU use with 52 MPI tasks x 1 OpenMP threads

Minimization stats:
  Stopping criterion = linesearch alpha is zero
  Energy initial, next-to-last, final = 
      -230322.07966809  -231867.405755732  -231867.405755732
  Force two-norm initial, final = 499.66764 0.031155388
  Force max component initial, final = 202.30940 0.0056256948
  Final line search alpha, max atom move = 7.6293945e-06 4.2920645e-08
  Iterations, force evaluations = 310 666

MPI task timing breakdown:
Section |  min time  |  avg time  |  max time  |%varavg| %total
---------------------------------------------------------------
Pair    | 4.0074     | 4.126      | 4.3359     |   4.0 | 76.76
Bond    | 4.4904e-05 | 7.4234e-05 | 0.00011743 |   0.0 |  0.00
Kspace  | 0.87101    | 1.0835     | 1.2055     |   7.9 | 20.16
Neigh   | 0.027856   | 0.030133   | 0.032739   |   0.6 |  0.56
Comm    | 0.10284    | 0.10676    | 0.10989    |   0.5 |  1.99
Output  | 0          | 0          | 0          |   0.0 |  0.00
Modify  | 0          | 0          | 0          |   0.0 |  0.00
Other   |            | 0.02886    |            |       |  0.54

Nlocal:        339.846 ave         363 max         324 min
Histogram: 3 3 4 26 4 2 6 0 0 4
Nghost:        5533.75 ave        5702 max        5370 min
Histogram: 11 5 0 3 6 9 3 3 0 12
Neighs:       107901.0 ave      117238 max       96529 min
Histogram: 2 2 3 5 2 18 10 6 0 4

Total # of neighbors = 5610845
Ave neighs/atom = 317.49915
Ave special neighs/atom = 0.0000000
Neighbor list builds = 10
Dangerous builds = 0
Resetting atom IDs ...
PPPM initialization ...
  using 12-bit tables for long-range coulomb (../kspace.cpp:328)
  G vector (1/distance) = 0.29911918
  grid = 40 240 40
  stencil order = 5
  estimated absolute RMS force accuracy = 0.00015363825
  estimated relative force accuracy = 1.0669586e-05
  using single precision MKL FFT
  3d grid and FFT values/proc = 18225 7600
Neighbor list info ...
  update every 1 steps, delay 0 steps, check yes
  max neighbors/atom: 2000, page size: 100000
  master list distance cutoff = 13
  ghost atom cutoff = 13
  binsize = 6.5, bins = 5 52 5
  3 neighbor lists, perpetual/occasional/extra = 3 0 0
  (1) pair coul/long, perpetual
      attributes: half, newton on
      pair build: half/bin/newton
      stencil: half/bin/3d/newton
      bin: standard
  (2) pair eam/alloy, perpetual, skip from (1)
      attributes: half, newton on
      pair build: skip
      stencil: none
      bin: none
  (3) pair table, perpetual, skip from (1)
      attributes: half, newton on
      pair build: skip
      stencil: none
      bin: none
Finding 1-2 1-3 1-4 neighbors ...
  special bond factors lj:    0.0      0.0      0.0     
  special bond factors coul:  0.0      0.0      0.0     
     0 = max # of 1-2 neighbors
     0 = max # of 1-3 neighbors
     0 = max # of 1-4 neighbors
     1 = max # of special neighbors
  special bonds CPU = 0.001 seconds
PPPM initialization ...
  using 12-bit tables for long-range coulomb (../kspace.cpp:328)
  G vector (1/distance) = 0.29911918
  grid = 40 240 40
  stencil order = 5
  estimated absolute RMS force accuracy = 0.00015363825
  estimated relative force accuracy = 1.0669586e-05
  using single precision MKL FFT
  3d grid and FFT values/proc = 18225 7600
Neighbor list info ...
  update every 1 steps, delay 0 steps, check yes
  max neighbors/atom: 2000, page size: 100000
  master list distance cutoff = 13
  ghost atom cutoff = 13
  binsize = 6.5, bins = 5 52 5
  3 neighbor lists, perpetual/occasional/extra = 3 0 0
  (1) pair coul/long, perpetual
      attributes: half, newton on
      pair build: half/bin/newton
      stencil: half/bin/3d/newton
      bin: standard
  (2) pair eam/alloy, perpetual, skip from (1)
      attributes: half, newton on
      pair build: skip
      stencil: none
      bin: none
  (3) pair table, perpetual, skip from (1)
      attributes: half, newton on
      pair build: skip
      stencil: none
      bin: none
Setting up Verlet run ...
  Unit style    : metal
  Current step  : 310
  Time step     : 0.001
Per MPI rank memory allocation (min/avg/max) = 10.53 | 11.23 | 11.31 Mbytes
Step Temp E_pair E_mol TotEng Press 
     310          600   -231867.41            0   -230496.91    5440.9263 
   10310    598.50531   -230471.99            0   -229104.91    27515.998 
Loop time of 71.6918 on 52 procs for 10000 steps with 17672 atoms

Performance: 12.052 ns/day, 1.991 hours/ns, 139.486 timesteps/s
99.8% CPU use with 52 MPI tasks x 1 OpenMP threads

MPI task timing breakdown:
Section |  min time  |  avg time  |  max time  |%varavg| %total
---------------------------------------------------------------
Pair    | 52.018     | 53.61      | 56.485     |  14.5 | 74.78
Bond    | 0.00089467 | 0.0014033  | 0.0018935  |   0.6 |  0.00
Kspace  | 13.095     | 15.861     | 17.33      |  26.4 | 22.12
Neigh   | 0.21526    | 0.23502    | 0.25463    |   1.8 |  0.33
Comm    | 1.3748     | 1.4912     | 1.6914     |   6.9 |  2.08
Output  | 0.0018531  | 0.0022851  | 0.0055503  |   1.1 |  0.00
Modify  | 0.17913    | 0.35293    | 0.53731    |  21.4 |  0.49
Other   |            | 0.1376     |            |       |  0.19

Nlocal:        339.846 ave         365 max         322 min
Histogram: 2 4 8 14 11 6 2 1 1 3
Nghost:        5533.85 ave        5708 max        5369 min
Histogram: 12 4 0 3 8 9 1 3 0 12
Neighs:       108440.0 ave      118849 max       95791 min
Histogram: 2 3 1 4 6 12 15 5 1 3

Total # of neighbors = 5638864
Ave neighs/atom = 319.08465
Ave special neighs/atom = 0.0000000
Neighbor list builds = 77
Dangerous builds = 0
System init for write_data ...
PPPM initialization ...
  using 12-bit tables for long-range coulomb (../kspace.cpp:328)
  G vector (1/distance) = 0.29911918
  grid = 40 240 40
  stencil order = 5
  estimated absolute RMS force accuracy = 0.00015363825
  estimated relative force accuracy = 1.0669586e-05
  using single precision MKL FFT
  3d grid and FFT values/proc = 18225 7600
Neighbor list info ...
  update every 1 steps, delay 0 steps, check yes
  max neighbors/atom: 2000, page size: 100000
  master list distance cutoff = 13
  ghost atom cutoff = 13
  binsize = 6.5, bins = 5 52 5
  3 neighbor lists, perpetual/occasional/extra = 3 0 0
  (1) pair coul/long, perpetual
      attributes: half, newton on
      pair build: half/bin/newton
      stencil: half/bin/3d/newton
      bin: standard
  (2) pair eam/alloy, perpetual, skip from (1)
      attributes: half, newton on
      pair build: skip
      stencil: none
      bin: none
  (3) pair table, perpetual, skip from (1)
      attributes: half, newton on
      pair build: skip
      stencil: none
      bin: none
OMP_NUM_THREADS environment is not set. Defaulting to 1 thread. (../comm.cpp:94)
  using 1 OpenMP thread(s) per MPI task
Reading data file ...
  orthogonal box = (-0.27717828 -3.4472206 -0.27717828) to (27.617178 331.52722 27.617178)
  2 by 13 by 2 MPI processor grid
  reading atoms ...
  17676 atoms
Finding 1-2 1-3 1-4 neighbors ...
  special bond factors lj:    0.0      0.0      0.0     
  special bond factors coul:  0.0      0.0      0.0     
     0 = max # of 1-2 neighbors
     0 = max # of 1-3 neighbors
     0 = max # of 1-4 neighbors
     1 = max # of special neighbors
  special bonds CPU = 0.001 seconds
  read_data CPU = 0.030 seconds
Setting atom values ...
  11760 settings made for charge
Setting atom values ...
  5880 settings made for charge
Setting atom values ...
  36 settings made for charge
WARNING: 13 of 1000 force values in table Xe-Xe are inconsistent with -dE/dr.
  Should only be flagged at inflection points (../pair_table.cpp:461)
WARNING: 2 of 1000 force values in table Xe-O are inconsistent with -dE/dr.
  Should only be flagged at inflection points (../pair_table.cpp:461)
WARNING: 2 of 1000 force values in table Xe-Th are inconsistent with -dE/dr.
  Should only be flagged at inflection points (../pair_table.cpp:461)
PPPM initialization ...
  using 12-bit tables for long-range coulomb (../kspace.cpp:328)
  G vector (1/distance) = 0.29911887
  grid = 40 240 40
  stencil order = 5
  estimated absolute RMS force accuracy = 0.00015362215
  estimated relative force accuracy = 1.0668468e-05
  using single precision MKL FFT
  3d grid and FFT values/proc = 18225 7600
Neighbor list info ...
  update every 1 steps, delay 0 steps, check yes
  max neighbors/atom: 2000, page size: 100000
  master list distance cutoff = 13
  ghost atom cutoff = 13
  binsize = 6.5, bins = 5 52 5
  3 neighbor lists, perpetual/occasional/extra = 3 0 0
  (1) pair coul/long, perpetual
      attributes: half, newton on
      pair build: half/bin/newton
      stencil: half/bin/3d/newton
      bin: standard
  (2) pair eam/alloy, perpetual, skip from (1)
      attributes: half, newton on
      pair build: skip
      stencil: none
      bin: none
  (3) pair table, perpetual, skip from (1)
      attributes: half, newton on
      pair build: skip
      stencil: none
      bin: none
Setting up cg style minimization ...
  Unit style    : metal
  Current step  : 0
Per MPI rank memory allocation (min/avg/max) = 11.65 | 12.38 | 12.43 Mbytes
Step Temp E_pair E_mol TotEng Press 
       0            0   -229722.01            0   -229722.01    27685.831 
     318            0   -231867.21            0   -231867.21   -76.470243 
Loop time of 5.81186 on 52 procs for 318 steps with 17676 atoms

99.8% CPU use with 52 MPI tasks x 1 OpenMP threads

Minimization stats:
  Stopping criterion = linesearch alpha is zero
  Energy initial, next-to-last, final = 
     -229722.011548288  -231867.206396913  -231867.206396913
  Force two-norm initial, final = 3328.7016 0.033016928
  Force max component initial, final = 1861.7856 0.0038290331
  Final line search alpha, max atom move = 7.6293945e-06 2.9213204e-08
  Iterations, force evaluations = 318 720

MPI task timing breakdown:
Section |  min time  |  avg time  |  max time  |%varavg| %total
---------------------------------------------------------------
Pair    | 4.3404     | 4.4738     | 4.6881     |   3.9 | 76.98
Bond    | 4.5736e-05 | 8.2962e-05 | 0.00014768 |   0.0 |  0.00
Kspace  | 0.94767    | 1.1646     | 1.2972     |   7.7 | 20.04
Neigh   | 0.025211   | 0.027245   | 0.029942   |   0.6 |  0.47
Comm    | 0.11035    | 0.11421    | 0.11841    |   0.6 |  1.97
Output  | 0          | 0          | 0          |   0.0 |  0.00
Modify  | 0          | 0          | 0          |   0.0 |  0.00
Other   |            | 0.03191    |            |       |  0.55

Nlocal:        339.923 ave         363 max         321 min
Histogram: 2 2 2 17 17 3 5 0 0 4
Nghost:        5536.92 ave        5702 max        5373 min
Histogram: 14 2 0 1 7 8 4 4 0 12
Neighs:       107943.0 ave      117231 max       97136 min
Histogram: 3 1 4 4 2 24 5 5 0 4

Total # of neighbors = 5613035
Ave neighs/atom = 317.55120
Ave special neighs/atom = 0.0000000
Neighbor list builds = 9
Dangerous builds = 0
Resetting atom IDs ...
PPPM initialization ...
  using 12-bit tables for long-range coulomb (../kspace.cpp:328)
  G vector (1/distance) = 0.29911887
  grid = 40 240 40
  stencil order = 5
  estimated absolute RMS force accuracy = 0.00015362215
  estimated relative force accuracy = 1.0668468e-05
  using single precision MKL FFT
  3d grid and FFT values/proc = 18225 7600
Neighbor list info ...
  update every 1 steps, delay 0 steps, check yes
  max neighbors/atom: 2000, page size: 100000
  master list distance cutoff = 13
  ghost atom cutoff = 13
  binsize = 6.5, bins = 5 52 5
  3 neighbor lists, perpetual/occasional/extra = 3 0 0
  (1) pair coul/long, perpetual
      attributes: half, newton on
[...]
      pair build: half/bin/newton
      stencil: half/bin/3d/newton
      bin: standard
  (2) pair eam/alloy, perpetual, skip from (1)
      attributes: half, newton on
      pair build: skip
      stencil: none
      bin: none
  (3) pair table, perpetual, skip from (1)
      attributes: half, newton on
      pair build: skip
      stencil: none
      bin: none
Setting up cg style minimization ...
  Unit style    : metal
  Current step  : 0
Per MPI rank memory allocation (min/avg/max) = 12.03 | 12.37 | 12.43 Mbytes
Step Temp E_pair E_mol TotEng Press 
       0            0   -225385.42            0   -225385.42    57410.219 
     374            0   -231784.19            0   -231784.19    6189.5928 
Loop time of 6.22816 on 52 procs for 374 steps with 17756 atoms

99.8% CPU use with 52 MPI tasks x 1 OpenMP threads

Minimization stats:
  Stopping criterion = linesearch alpha is zero
  Energy initial, next-to-last, final = 
     -225385.421792414  -231784.190584068  -231784.190584068
  Force two-norm initial, final = 13057.615 0.029192399
  Force max component initial, final = 4445.0432 0.0067853344
  Final line search alpha, max atom move = 7.6293945e-06 5.1767993e-08
  Iterations, force evaluations = 374 764

MPI task timing breakdown:
Section |  min time  |  avg time  |  max time  |%varavg| %total
---------------------------------------------------------------
Pair    | 4.6315     | 4.8088     | 4.9764     |   4.1 | 77.21
Bond    | 4.7558e-05 | 8.8466e-05 | 0.00014636 |   0.0 |  0.00
Kspace  | 1.0584     | 1.2244     | 1.4015     |   8.1 | 19.66
Neigh   | 0.034103   | 0.03673    | 0.039538   |   0.6 |  0.59
Comm    | 0.11951    | 0.12355    | 0.12796    |   0.5 |  1.98
Output  | 0          | 0          | 0          |   0.0 |  0.00
Modify  | 0          | 0          | 0          |   0.0 |  0.00
Other   |            | 0.03462    |            |       |  0.56

Nlocal:        341.462 ave         364 max         328 min
Histogram: 2 4 25 5 5 3 4 0 0 4
Nghost:        5557.00 ave        5710 max        5418 min
Histogram: 14 4 2 0 8 4 2 6 0 12
Neighs:       108757.0 ave      117371 max       99261 min
Histogram: 2 3 1 5 11 18 3 2 3 4

Total # of neighbors = 5655351
Ave neighs/atom = 318.50366
Ave special neighs/atom = 0.0000000
Neighbor list builds = 12
Dangerous builds = 0
Resetting atom IDs ...
PPPM initialization ...
  using 12-bit tables for long-range coulomb (../kspace.cpp:328)
  G vector (1/distance) = 0.2991127
  grid = 40 240 40
  stencil order = 5
  estimated absolute RMS force accuracy = 0.00015330142
  estimated relative force accuracy = 1.0646194e-05
  using single precision MKL FFT
  3d grid and FFT values/proc = 18225 7600
Neighbor list info ...
  update every 1 steps, delay 0 steps, check yes
  max neighbors/atom: 2000, page size: 100000
  master list distance cutoff = 13
  ghost atom cutoff = 13
  binsize = 6.5, bins = 5 52 5
  3 neighbor lists, perpetual/occasional/extra = 3 0 0
  (1) pair coul/long, perpetual
      attributes: half, newton on
      pair build: half/bin/newton
      stencil: half/bin/3d/newton
      bin: standard
  (2) pair eam/alloy, perpetual, skip from (1)
      attributes: half, newton on
      pair build: skip
      stencil: none
      bin: none
  (3) pair table, perpetual, skip from (1)
      attributes: half, newton on
      pair build: skip
      stencil: none
      bin: none
Finding 1-2 1-3 1-4 neighbors ...
  special bond factors lj:    0.0      0.0      0.0     
  special bond factors coul:  0.0      0.0      0.0     
     0 = max # of 1-2 neighbors
     0 = max # of 1-3 neighbors
     0 = max # of 1-4 neighbors
     1 = max # of special neighbors
  special bonds CPU = 0.001 seconds
PPPM initialization ...
  using 12-bit tables for long-range coulomb (../kspace.cpp:328)
  G vector (1/distance) = 0.2991127
  grid = 40 240 40
  stencil order = 5
  estimated absolute RMS force accuracy = 0.00015330142
  estimated relative force accuracy = 1.0646194e-05
  using single precision MKL FFT
  3d grid and FFT values/proc = 18225 7600
Neighbor list info ...
  update every 1 steps, delay 0 steps, check yes
  max neighbors/atom: 2000, page size: 100000
  master list distance cutoff = 13
  ghost atom cutoff = 13
  binsize = 6.5, bins = 5 52 5
  3 neighbor lists, perpetual/occasional/extra = 3 0 0
  (1) pair coul/long, perpetual
      attributes: half, newton on
      pair build: half/bin/newton
      stencil: half/bin/3d/newton
      bin: standard
  (2) pair eam/alloy, perpetual, skip from (1)
      attributes: half, newton on
      pair build: skip
      stencil: none
      bin: none
  (3) pair table, perpetual, skip from (1)
      attributes: half, newton on
      pair build: skip
      stencil: none
      bin: none
Setting up Verlet run ...
  Unit style    : metal
  Current step  : 374
  Time step     : 0.001
Per MPI rank memory allocation (min/avg/max) = 10.91 | 11.25 | 11.30 Mbytes
Step Temp E_pair E_mol TotEng Press 
     374          600   -231784.19            0   -230407.18    11832.609 
   10374    605.17188   -230400.35            0   -229011.47    34479.613 
Loop time of 70.9922 on 52 procs for 10000 steps with 17756 atoms

Performance: 12.170 ns/day, 1.972 hours/ns, 140.861 timesteps/s
99.8% CPU use with 52 MPI tasks x 1 OpenMP threads

MPI task timing breakdown:
Section |  min time  |  avg time  |  max time  |%varavg| %total
---------------------------------------------------------------
Pair    | 52.132     | 53.802     | 55.999     |  11.6 | 75.79
Bond    | 0.00088771 | 0.0014061  | 0.0019511  |   0.6 |  0.00
Kspace  | 12.996     | 15.044     | 16.6       |  21.9 | 21.19
Neigh   | 0.14902    | 0.15901    | 0.17085    |   1.2 |  0.22
Comm    | 1.3606     | 1.4878     | 1.6784     |   6.7 |  2.10
Output  | 0.0017428  | 0.0020958  | 0.0041808  |   0.8 |  0.00
Modify  | 0.20318    | 0.3571     | 0.52395    |  19.7 |  0.50
Other   |            | 0.1385     |            |       |  0.20

Nlocal:        341.462 ave         365 max         326 min
Histogram: 2 4 10 16 7 7 2 0 2 2
Nghost:        5554.98 ave        5715 max        5414 min
Histogram: 15 2 2 1 8 8 0 4 0 12
Neighs:       109362.0 ave      118475 max       97486 min
Histogram: 1 2 3 3 4 16 14 5 0 4

Total # of neighbors = 5686804
Ave neighs/atom = 320.27506
Ave special neighs/atom = 0.0000000
Neighbor list builds = 52
Dangerous builds = 0
System init for write_data ...
PPPM initialization ...
  using 12-bit tables for long-range coulomb (../kspace.cpp:328)
  G vector (1/distance) = 0.2991127
  grid = 40 240 40
  stencil order = 5
  estimated absolute RMS force accuracy = 0.00015330142
  estimated relative force accuracy = 1.0646194e-05
  using single precision MKL FFT
  3d grid and FFT values/proc = 18225 7600
Neighbor list info ...
  update every 1 steps, delay 0 steps, check yes
  max neighbors/atom: 2000, page size: 100000
  master list distance cutoff = 13
  ghost atom cutoff = 13
  binsize = 6.5, bins = 5 52 5
  3 neighbor lists, perpetual/occasional/extra = 3 0 0
  (1) pair coul/long, perpetual
      attributes: half, newton on
      pair build: half/bin/newton
      stencil: half/bin/3d/newton
      bin: standard
  (2) pair eam/alloy, perpetual, skip from (1)
      attributes: half, newton on
      pair build: skip
      stencil: none
      bin: none
  (3) pair table, perpetual, skip from (1)
      attributes: half, newton on
      pair build: skip
      stencil: none
      bin: none
OMP_NUM_THREADS environment is not set. Defaulting to 1 thread. (../comm.cpp:94)
  using 1 OpenMP thread(s) per MPI task
Reading data file ...
  orthogonal box = (-0.27717828 -3.4472206 -0.27717828) to (27.617178 331.52722 27.617178)
  2 by 13 by 2 MPI processor grid
  reading atoms ...
  17760 atoms
Finding 1-2 1-3 1-4 neighbors ...
  special bond factors lj:    0.0      0.0      0.0     
  special bond factors coul:  0.0      0.0      0.0     
     0 = max # of 1-2 neighbors
     0 = max # of 1-3 neighbors
     0 = max # of 1-4 neighbors
     1 = max # of special neighbors
  special bonds CPU = 0.001 seconds
  read_data CPU = 0.029 seconds
Setting atom values ...
  11760 settings made for charge
Setting atom values ...
  5880 settings made for charge
Setting atom values ...
  120 settings made for charge
WARNING: 13 of 1000 force values in table Xe-Xe are inconsistent with -dE/dr.
  Should only be flagged at inflection points (../pair_table.cpp:461)
WARNING: 2 of 1000 force values in table Xe-O are inconsistent with -dE/dr.
  Should only be flagged at inflection points (../pair_table.cpp:461)
WARNING: 2 of 1000 force values in table Xe-Th are inconsistent with -dE/dr.
  Should only be flagged at inflection points (../pair_table.cpp:461)
PPPM initialization ...
  using 12-bit tables for long-range coulomb (../kspace.cpp:328)
  G vector (1/distance) = 0.29911239
  grid = 40 240 40
  stencil order = 5
  estimated absolute RMS force accuracy = 0.00015328544
  estimated relative force accuracy = 1.0645085e-05
  using single precision MKL FFT
  3d grid and FFT values/proc = 18225 7600
Neighbor list info ...
  update every 1 steps, delay 0 steps, check yes
  max neighbors/atom: 2000, page size: 100000
  master list distance cutoff = 13
  ghost atom cutoff = 13
  binsize = 6.5, bins = 5 52 5
  3 neighbor lists, perpetual/occasional/extra = 3 0 0
  (1) pair coul/long, perpetual
      attributes: half, newton on
      pair build: half/bin/newton
      stencil: half/bin/3d/newton
      bin: standard
  (2) pair eam/alloy, perpetual, skip from (1)
      attributes: half, newton on
      pair build: skip
      stencil: none
      bin: none
  (3) pair table, perpetual, skip from (1)
      attributes: half, newton on
      pair build: skip
      stencil: none
      bin: none
Setting up cg style minimization ...
  Unit style    : metal
  Current step  : 0
Per MPI rank memory allocation (min/avg/max) = 12.02 | 12.36 | 12.43 Mbytes
Step Temp E_pair E_mol TotEng Press 
       0            0   -228634.73            0   -228634.73    41746.185 
     306            0   -231775.21            0   -231775.21    6724.2889 
Loop time of 6.39755 on 52 procs for 306 steps with 17760 atoms

99.8% CPU use with 52 MPI tasks x 1 OpenMP threads

Minimization stats:
  Stopping criterion = linesearch alpha is zero
  Energy initial, next-to-last, final = 
     -228634.733994703  -231775.205085413  -231775.205085413
  Force two-norm initial, final = 6303.5769 0.016098513
  Force max component initial, final = 4318.8190 0.0038019994
  Final line search alpha, max atom move = 3.0517578e-05 1.1602781e-07
  Iterations, force evaluations = 306 798

MPI task timing breakdown:
Section |  min time  |  avg time  |  max time  |%varavg| %total
---------------------------------------------------------------
Pair    | 4.806      | 4.9745     | 5.1597     |   3.9 | 77.76
Bond    | 5.4189e-05 | 9.0377e-05 | 0.00014329 |   0.0 |  0.00
Kspace  | 1.0545     | 1.2411     | 1.4092     |   7.8 | 19.40
Neigh   | 0.020265   | 0.021207   | 0.022764   |   0.4 |  0.33
Comm    | 0.1237     | 0.12734    | 0.13138    |   0.5 |  1.99
Output  | 0          | 0          | 0          |   0.0 |  0.00
Modify  | 0          | 0          | 0          |   0.0 |  0.00
Other   |            | 0.0333     |            |       |  0.52

Nlocal:        341.538 ave         363 max         329 min
Histogram: 3 3 25 3 6 4 4 0 0 4
Nghost:        5556.38 ave        5709 max        5417 min
Histogram: 14 6 0 0 7 5 0 8 0 12
Neighs:       108797.0 ave      117187 max       99778 min
Histogram: 2 3 3 3 11 16 4 6 0 4

Total # of neighbors = 5657465
Ave neighs/atom = 318.55096
Ave special neighs/atom = 0.0000000
Neighbor list builds = 7
Dangerous builds = 0
Resetting atom IDs ...
PPPM initialization ...
  using 12-bit tables for long-range coulomb (../kspace.cpp:328)
  G vector (1/distance) = 0.29911239
  grid = 40 240 40
  stencil order = 5
  estimated absolute RMS force accuracy = 0.00015328544
  estimated relative force accuracy = 1.0645085e-05
  using single precision MKL FFT
  3d grid and FFT values/proc = 18225 7600
Neighbor list info ...
  update every 1 steps, delay 0 steps, check yes
  max neighbors/atom: 2000, page size: 100000
  master list distance cutoff = 13
  ghost atom cutoff = 13
  binsize = 6.5, bins = 5 52 5
  3 neighbor lists, perpetual/occasional/extra = 3 0 0
  (1) pair coul/long, perpetual
      attributes: half, newton on
      pair build: half/bin/newton
      stencil: half/bin/3d/newton
      bin: standard
  (2) pair eam/alloy, perpetual, skip from (1)
      attributes: half, newton on
      pair build: skip
      stencil: none
      bin: none
  (3) pair table, perpetual, skip from (1)
      attributes: half, newton on
      pair build: skip
      stencil: none
      bin: none
Finding 1-2 1-3 1-4 neighbors ...
  special bond factors lj:    0.0      0.0      0.0     
  special bond factors coul:  0.0      0.0      0.0     
     0 = max # of 1-2 neighbors
     0 = max # of 1-3 neighbors
     0 = max # of 1-4 neighbors
     1 = max # of special neighbors
  special bonds CPU = 0.001 seconds
PPPM initialization ...
  using 12-bit tables for long-range coulomb (../kspace.cpp:328)
  G vector (1/distance) = 0.29911239
  grid = 40 240 40
  stencil order = 5
  estimated absolute RMS force accuracy = 0.00015328544
  estimated relative force accuracy = 1.0645085e-05
  using single precision MKL FFT
  3d grid and FFT values/proc = 18225 7600
Neighbor list info ...
  update every 1 steps, delay 0 steps, check yes
  max neighbors/atom: 2000, page size: 100000
  master list distance cutoff = 13
  ghost atom cutoff = 13
  binsize = 6.5, bins = 5 52 5
  3 neighbor lists, perpetual/occasional/extra = 3 0 0
  (1) pair coul/long, perpetual
      attributes: half, newton on
      pair build: half/bin/newton
      stencil: half/bin/3d/newton
      bin: standard
  (2) pair eam/alloy, perpetual, skip from (1)
      attributes: half, newton on
      pair build: skip
      stencil: none
      bin: none
  (3) pair table, perpetual, skip from (1)
      attributes: half, newton on
      pair build: skip
      stencil: none
      bin: none
Setting up Verlet run ...
  Unit style    : metal
  Current step  : 306
  Time step     : 0.001
Per MPI rank memory allocation (min/avg/max) = 10.92 | 11.26 | 11.31 Mbytes
Step Temp E_pair E_mol TotEng Press 
     306          600   -231775.21            0   -230397.89    12368.576 
   10306    607.75932   -230396.26            0   -229001.13    35033.975 
Loop time of 71.0848 on 52 procs for 10000 steps with 17760 atoms

Performance: 12.154 ns/day, 1.975 hours/ns, 140.677 timesteps/s
99.8% CPU use with 52 MPI tasks x 1 OpenMP threads

MPI task timing breakdown:
Section |  min time  |  avg time  |  max time  |%varavg| %total
---------------------------------------------------------------
Pair    | 52.086     | 53.86      | 56.021     |  11.3 | 75.77
Bond    | 0.00085724 | 0.0014488  | 0.0019428  |   0.6 |  0.00
Kspace  | 13.052     | 15.099     | 16.763     |  21.6 | 21.24
Neigh   | 0.13459    | 0.14416    | 0.15499    |   1.1 |  0.20
Comm    | 1.3635     | 1.4812     | 1.7081     |   6.6 |  2.08
Output  | 0.0018011  | 0.0022002  | 0.0065765  |   1.4 |  0.00
Modify  | 0.19408    | 0.35709    | 0.53538    |  19.6 |  0.50
Other   |            | 0.1395     |            |       |  0.20

Nlocal:        341.538 ave         365 max         327 min
Histogram: 3 6 13 12 6 3 4 1 2 2
Nghost:        5555.40 ave        5709 max        5414 min
Histogram: 13 3 2 2 9 7 0 4 0 12
Neighs:       109402.0 ave      118399 max       99263 min
Histogram: 3 4 0 4 13 8 7 9 0 4

Total # of neighbors = 5688917
Ave neighs/atom = 320.32190
Ave special neighs/atom = 0.0000000
Neighbor list builds = 47
Dangerous builds = 0
System init for write_data ...
PPPM initialization ...
  using 12-bit tables for long-range coulomb (../kspace.cpp:328)
  G vector (1/distance) = 0.29911239
  grid = 40 240 40
  stencil order = 5
  estimated absolute RMS force accuracy = 0.00015328544
  estimated relative force accuracy = 1.0645085e-05
  using single precision MKL FFT
  3d grid and FFT values/proc = 18225 7600
Neighbor list info ...
  update every 1 steps, delay 0 steps, check yes
  max neighbors/atom: 2000, page size: 100000
  master list distance cutoff = 13
  ghost atom cutoff = 13
  binsize = 6.5, bins = 5 52 5
  3 neighbor lists, perpetual/occasional/extra = 3 0 0
  (1) pair coul/long, perpetual
      attributes: half, newton on
      pair build: half/bin/newton
      stencil: half/bin/3d/newton
      bin: standard
  (2) pair eam/alloy, perpetual, skip from (1)
      attributes: half, newton on
      pair build: skip
      stencil: none
      bin: none
  (3) pair table, perpetual, skip from (1)
      attributes: half, newton on
      pair build: skip
      stencil: none
      bin: none
ERROR on proc 0: Substitution for illegal variable n (../input.cpp:597)
ERROR on proc 7: Substitution for illegal variable n (../input.cpp:597)
ERROR on proc 9: Substitution for illegal variable n (../input.cpp:597)
ERROR on proc 16: Substitution for illegal variable n (../input.cpp:597)
ERROR on proc 19: Substitution for illegal variable n (../input.cpp:597)
ERROR on proc 4: Substitution for illegal variable n (../input.cpp:597)
ERROR on proc 6: Substitution for illegal variable n (../input.cpp:597)
ERROR on proc 12: Substitution for illegal variable n (../input.cpp:597)
ERROR on proc 13: Substitution for illegal variable n (../input.cpp:597)
ERROR on proc 14: Substitution for illegal variable n (../input.cpp:597)
ERROR on proc 17: Substitution for illegal variable n (../input.cpp:597)
ERROR on proc 18: Substitution for illegal variable n (../input.cpp:597)
ERROR on proc 20: Substitution for illegal variable n (../input.cpp:597)
ERROR on proc 21: Substitution for illegal variable n (../input.cpp:597)
ERROR on proc 22: Substitution for illegal variable n (../input.cpp:597)
ERROR on proc 23: Substitution for illegal variable n (../input.cpp:597)
ERROR on proc 24: Substitution for illegal variable n (../input.cpp:597)
ERROR on proc 25: Substitution for illegal variable n (../input.cpp:597)
ERROR on proc 26: Substitution for illegal variable n (../input.cpp:597)
ERROR on proc 27: Substitution for illegal variable n (../input.cpp:597)
ERROR on proc 28: Substitution for illegal variable n (../input.cpp:597)
ERROR on proc 29: Substitution for illegal variable n (../input.cpp:597)
ERROR on proc 30: Substitution for illegal variable n (../input.cpp:597)
ERROR on proc 31: Substitution for illegal variable n (../input.cpp:597)
ERROR on proc 32: Substitution for illegal variable n (../input.cpp:597)
ERROR on proc 33: Substitution for illegal variable n (../input.cpp:597)
ERROR on proc 34: Substitution for illegal variable n (../input.cpp:597)
ERROR on proc 35: Substitution for illegal variable n (../input.cpp:597)
ERROR on proc 36: Substitution for illegal variable n (../input.cpp:597)
ERROR on proc 37: Substitution for illegal variable n (../input.cpp:597)
ERROR on proc 38: Substitution for illegal variable n (../input.cpp:597)
ERROR on proc 39: Substitution for illegal variable n (../input.cpp:597)
ERROR on proc 40: Substitution for illegal variable n (../input.cpp:597)
ERROR on proc 41: Substitution for illegal variable n (../input.cpp:597)
ERROR on proc 42: Substitution for illegal variable n (../input.cpp:597)
ERROR on proc 43: Substitution for illegal variable n (../input.cpp:597)
ERROR on proc 44: Substitution for illegal variable n (../input.cpp:597)
ERROR on proc 45: Substitution for illegal variable n (../input.cpp:597)
ERROR on proc 46: Substitution for illegal variable n (../input.cpp:597)
ERROR on proc 47: Substitution for illegal variable n (../input.cpp:597)
ERROR on proc 48: Substitution for illegal variable n (../input.cpp:597)
ERROR on proc 49: Substitution for illegal variable n (../input.cpp:597)
ERROR on proc 50: Substitution for illegal variable n (../input.cpp:597)
ERROR on proc 51: Substitution for illegal variable n (../input.cpp:597)
