ITEM: TIMESTEP
50000
ITEM: NUMBER OF ATOMS
17760
ITEM: BOX BOUNDS pp pp pp
-4.1160303148623362e-01 2.7751603031486514e+01
-5.1920315379024515e+00 3.3327203153789782e+02
-4.1443057384631599e-01 2.7754430573846388e+01
ITEM: ATOMS id type q x y z
1 2 2.2208 5.11348 0.519703 4.98361
2 1 -1.1104 1.07233 -3.7823 0.712493
6 1 -1.1104 1.1292 -3.82053 3.67266
10 1 -1.1104 0.955831 -0.940557 0.711897
12 2 2.2208 5.27335 -2.38798 2.28758
14 1 -1.1104 0.839551 -0.987475 3.55414
16 1 -1.1104 3.88925 -3.71282 0.933118
18 2 2.2208 2.3904 0.261863 2.32748
19 1 -1.1104 3.90846 -3.6543 3.73093
21 2 2.2208 2.45399 -2.34453 5.33007
23 1 -1.1104 3.83577 -1.0467 0.828484
24 1 -1.1104 3.78 -1.01253 3.81182
15 1 -1.1104 6.4611 -0.955337 3.79231
8 1 -1.1104 6.66516 -3.818 3.75583
11 1 -1.1104 6.70406 -0.784381 0.963984
4 1 -1.1104 6.81222 -3.7404 0.917992
353 2 2.2208 8.1102 -5.24766 13.685
349 2 2.2208 2.54851 0.322628 13.5848
171 1 -1.1104 6.69692 -0.995992 6.76292
166 1 -1.1104 1.01094 -3.73848 6.66795
168 1 -1.1104 6.3831 -3.81186 6.50451
385 2 2.2208 5.34388 -5.08964 -0.384922
203 2 2.2208 5.28944 -5.21352 10.8504
363 2 2.2208 8.01057 5.97872 13.3678
31 2 2.2208 10.6644 0.396914 5.09853
32 1 -1.1104 12.087 -3.84505 0.855739
34 1 -1.1104 12.3707 -3.8736 3.78185
36 1 -1.1104 12.1156 -1.01003 0.884195
37 2 2.2208 10.7361 -2.33505 2.317
39 1 -1.1104 12.0138 -1.05199 3.75014
40 1 -1.1104 9.42316 -3.88376 0.916826
42 2 2.2208 7.9221 0.502402 2.23116
43 1 -1.1104 9.48577 -3.59294 3.69832
45 2 2.2208 7.8457 -2.42116 5.16079
47 1 -1.1104 9.50275 -0.935327 0.910053
48 1 -1.1104 9.18143 -0.791048 3.74602
81 2 2.2208 -0.291243 6.02452 5.13532
51 2 2.2208 8.18228 -5.18586 2.42601
373 2 2.2208 10.8505 14.6153 13.5998
348 2 2.2208 5.13133 -2.54114 13.6156
52 2 2.2208 10.9774 -5.16265 5.29565
205 1 -1.1104 12.3047 -3.61428 6.59677
3 1 -1.1104 1.02658 1.6692 0.890916
7 1 -1.1104 1.19667 1.67118 3.74381
13 2 2.2208 5.20287 3.30717 2.18184
17 1 -1.1104 3.85366 1.68729 0.961207
20 1 -1.1104 3.73893 1.69595 3.6855
22 2 2.2208 2.34857 3.19391 5.03287
54 2 2.2208 5.29855 6.07639 5.17944
56 1 -1.1104 0.944198 7.42584 0.606953
60 1 -1.1104 0.930155 4.61499 0.973854
67 1 -1.1104 0.968452 4.52203 3.7669
71 1 -1.1104 3.80677 7.3762 0.93629
72 2 2.2208 2.40173 6.01831 2.29847
76 1 -1.1104 3.7713 4.61588 0.794495
79 1 -1.1104 3.78776 4.53142 3.57249
5 1 -1.1104 6.7417 2.09319 0.858549
63 1 -1.1104 6.54624 4.74479 0.796312
235 1 -1.1104 6.69858 7.556 6.46613
173 1 -1.1104 3.63957 1.77566 6.58614
69 1 -1.1104 6.67574 4.69405 3.78896
9 1 -1.1104 6.37647 1.81343 3.55009
59 1 -1.1104 6.82866 7.54914 3.66577
57 1 -1.1104 6.47373 7.42681 0.824185
74 1 -1.1104 3.81815 7.44433 3.71563
58 1 -1.1104 1.2444 7.53762 3.5549
238 1 -1.1104 4.12675 7.4845 6.49442
167 1 -1.1104 0.94107 1.75235 6.5858
239 1 -1.1104 3.7906 4.62967 6.55614
234 1 -1.1104 1.14962 7.55479 6.4773
331 2 2.2208 10.7858 17.3923 10.7002
334 2 2.2208 13.6177 3.22578 5.06688
33 1 -1.1104 12.0897 1.91495 0.733428
35 1 -1.1104 12.1232 1.79772 3.70671
38 2 2.2208 10.7161 3.32501 2.35359
41 1 -1.1104 9.31387 1.81996 0.922861
44 1 -1.1104 9.21481 2.07602 3.68121
46 2 2.2208 7.89644 3.23873 5.09935
84 2 2.2208 10.8013 6.02466 4.83922
86 1 -1.1104 12.0929 7.54211 0.727043
87 1 -1.1104 12.2984 7.4829 3.57117
88 1 -1.1104 12.0871 4.7475 0.832423
92 1 -1.1104 12.254 4.64413 3.66933
94 1 -1.1104 9.32814 7.53748 0.741054
95 2 2.2208 8.02035 6.11208 2.20549
97 1 -1.1104 9.62288 7.62651 3.61418
99 1 -1.1104 9.32538 4.74199 0.632768
102 1 -1.1104 9.43131 4.88886 3.43708
267 1 -1.1104 9.42603 7.35001 6.42473
232 2 2.2208 10.8299 -5.12301 10.8017
269 1 -1.1104 9.37515 4.62079 6.19021
339 2 2.2208 13.5668 5.98629 7.90276
112 1 -1.1104 6.64492 18.647 6.36905
55 2 2.2208 5.21891 11.7347 4.96115
61 1 -1.1104 0.915263 10.171 0.804304
66 2 2.2208 5.15472 8.93018 2.20224
68 1 -1.1104 0.975342 10.416 3.57954
73 2 2.2208 2.42661 11.6004 2.16729
75 2 2.2208 2.56106 8.95898 5.09441
77 1 -1.1104 3.6564 10.2419 0.726718
80 1 -1.1104 3.80249 10.2149 3.57958
107 1 -1.1104 1.01763 13.0557 0.821202
113 1 -1.1104 0.931046 13.3548 3.82581
123 1 -1.1104 3.76423 13.0919 0.892914
128 1 -1.1104 3.77417 13.165 3.51214
64 1 -1.1104 6.526 10.3872 0.812194
115 1 -1.1104 6.63424 13.1087 3.70954
110 1 -1.1104 6.48539 13.1743 0.953854
70 1 -1.1104 6.53579 10.1874 3.60797
124 1 -1.1104 3.91635 13.0506 6.41729
62 1 -1.1104 1.41552 10.3662 6.38857
78 1 -1.1104 3.89036 10.4424 6.2632
65 1 -1.1104 6.72181 10.3034 6.33817
85 2 2.2208 10.7755 11.7291 5.07024
89 1 -1.1104 12.2181 10.2482 0.837767
91 2 2.2208 10.8498 8.95019 2.20058
93 1 -1.1104 12.3054 10.2451 3.55148
96 2 2.2208 8.02001 11.6906 2.17999
98 2 2.2208 8.15695 8.92879 5.1005
100 1 -1.1104 9.37949 10.3031 0.825382
103 1 -1.1104 9.39641 10.4326 3.72279
142 1 -1.1104 12.4148 13.1917 0.905026
146 1 -1.1104 12.2078 13.0384 3.82201
153 1 -1.1104 9.40021 12.9609 0.784364
158 1 -1.1104 9.3872 13.2105 3.67805
30 2 2.2208 -0.361145 -5.09627 5.25395
50 2 2.2208 13.5215 -2.4116 5.14313
101 1 -1.1104 9.38639 10.3779 6.46852
154 1 -1.1104 9.44968 13.2451 6.3971
90 1 -1.1104 12.2544 10.3186 6.29491
359 2 2.2208 2.49155 6.06831 13.4081
360 2 2.2208 5.27033 8.83685 13.2576
130 2 2.2208 2.43339 14.5883 4.9783
119 2 2.2208 5.12613 14.4987 2.30232
106 2 2.2208 5.35645 17.2555 5.1057
109 1 -1.1104 0.963681 18.8265 1.08597
114 1 -1.1104 1.02227 18.6815 3.71607
116 1 -1.1104 0.950014 15.9846 0.788195
120 2 2.2208 5.02919 20.1486 2.29984
121 1 -1.1104 1.00709 15.9078 3.65588
125 1 -1.1104 3.85989 18.7078 0.883939
127 2 2.2208 2.39774 17.2066 2.31902
129 1 -1.1104 3.86966 18.8197 3.65546
131 2 2.2208 2.42765 20.0296 5.09027
132 1 -1.1104 3.76375 15.8918 0.871085
134 1 -1.1104 3.89587 15.976 3.75399
122 1 -1.1104 6.77715 16.0285 3.78895
140 1 -1.1104 6.58697 15.9923 1.00066
139 1 -1.1104 6.65961 18.7611 3.4983
314 1 -1.1104 9.36612 15.8467 9.23534
302 1 -1.1104 1.1641 18.8085 6.46298
133 1 -1.1104 3.76513 15.8999 6.46418
233 2 2.2208 13.5274 -5.08485 7.88443
138 1 -1.1104 6.60486 19.005 0.869903
156 1 -1.1104 9.60058 18.81 6.67765
160 2 2.2208 8.08764 14.5887 5.05482
150 2 2.2208 11.0203 14.5952 2.30715
141 2 2.2208 10.8896 17.5047 5.10869
144 1 -1.1104 12.2366 18.8834 0.795294
147 1 -1.1104 12.3297 18.8076 3.76505
148 1 -1.1104 12.3707 15.9636 0.904652
151 2 2.2208 10.8551 20.1658 2.23276
152 1 -1.1104 12.149 15.92 3.83339
155 1 -1.1104 9.35312 18.5722 0.840096
157 2 2.2208 7.99299 17.3555 2.351
159 1 -1.1104 9.55352 18.7526 3.92643
161 2 2.2208 8.05139 20.033 5.18019
162 1 -1.1104 9.4857 15.6759 0.818938
164 1 -1.1104 9.49973 16.1718 3.46951
145 1 -1.1104 12.2209 18.6771 6.51266
355 2 2.2208 8.02819 0.302937 13.4146
163 1 -1.1104 9.51419 15.922 6.41525
364 2 2.2208 10.7767 8.87525 13.4916
341 2 2.2208 13.6505 8.99623 10.7103
301 1 -1.1104 3.75376 18.6498 9.19316
303 2 2.2208 2.45368 17.2186 7.92211
323 1 -1.1104 12.3431 16.0678 9.50581
321 1 -1.1104 9.39065 18.6399 12.0276
170 1 -1.1104 0.982643 -1.12165 6.52484
174 1 -1.1104 3.76423 -0.885579 6.6722
352 2 2.2208 5.15788 3.31172 13.4175
327 1 -1.1104 12.1395 18.7441 9.19794
172 1 -1.1104 3.62444 -3.86534 6.3629
175 2 2.2208 5.20895 0.417084 10.6501
176 1 -1.1104 1.01241 -3.7817 12.1824
180 1 -1.1104 1.02836 -3.8108 9.41208
184 1 -1.1104 1.09734 -0.965826 12.0944
186 2 2.2208 5.00991 -2.41569 8.02672
188 1 -1.1104 0.943211 -0.960126 9.4016
190 1 -1.1104 3.7327 -3.78457 12.2247
192 2 2.2208 2.35736 0.453565 7.98565
193 1 -1.1104 3.7837 -3.74655 9.30697
195 2 2.2208 2.30562 -2.40382 10.7748
197 1 -1.1104 3.92017 -1.09961 12.2506
198 1 -1.1104 3.76433 -0.981619 9.5535
182 1 -1.1104 6.47329 -3.7679 9.50332
185 1 -1.1104 6.4451 -1.21524 11.8856
189 1 -1.1104 6.73049 -0.821127 9.32701
356 2 2.2208 10.7929 -2.43407 13.4973
207 1 -1.1104 12.0298 -0.863202 6.52738
304 1 -1.1104 3.706 15.8135 9.39519
315 1 -1.1104 9.33732 16.0227 12.2812
178 1 -1.1104 6.56247 -3.87801 12.1771
135 2 2.2208 -0.289292 14.5327 2.27919
324 2 2.2208 10.9481 20.2378 8.01566
208 1 -1.1104 9.46461 -3.84549 6.68552
210 1 -1.1104 9.36705 -1.04767 6.54963
211 2 2.2208 10.8722 0.294736 10.6462
212 1 -1.1104 12.3528 -3.86815 12.142
214 1 -1.1104 12.2736 -3.66662 9.17148
216 1 -1.1104 11.9183 -1.02823 12.2344
217 2 2.2208 10.7231 -2.27877 7.92418
219 1 -1.1104 12.24 -0.953329 9.43176
220 1 -1.1104 9.49075 -3.84934 12.0698
222 2 2.2208 8.00178 0.520858 7.91613
223 1 -1.1104 9.33781 -3.61812 9.29884
225 2 2.2208 7.80771 -2.536 10.6745
227 1 -1.1104 9.21186 -1.16143 12.0271
228 1 -1.1104 9.37186 -0.897285 9.24417
318 1 -1.1104 9.2984 18.575 9.35893
316 2 2.2208 8.03945 20.0699 10.8432
368 2 2.2208 2.38484 17.3997 13.6571
169 1 -1.1104 6.47897 1.92367 6.31885
236 1 -1.1104 1.03251 4.65362 6.69659
237 1 -1.1104 6.59307 4.57938 6.59931
177 1 -1.1104 1.28642 1.95961 12.4958
181 1 -1.1104 1.03404 1.957 9.45757
187 2 2.2208 5.05077 3.14957 7.92118
191 1 -1.1104 3.88773 1.85652 12.1372
194 1 -1.1104 3.66088 1.95243 9.2875
196 2 2.2208 2.43467 3.29609 10.7253
240 2 2.2208 5.22364 6.00514 10.4106
242 1 -1.1104 0.965852 7.64526 12.1474
244 1 -1.1104 1.04072 7.63483 9.24076
246 1 -1.1104 1.03271 4.69435 12.2374
251 1 -1.1104 0.91784 4.69426 9.33096
256 2 2.2208 2.53028 6.02088 7.90085
258 1 -1.1104 3.71338 7.27381 9.29657
260 1 -1.1104 3.85727 4.72621 11.9857
262 1 -1.1104 3.76697 4.53571 9.20806
255 1 -1.1104 3.74752 7.57692 11.8203
243 1 -1.1104 6.6284 7.26228 12.0324
179 1 -1.1104 6.54493 1.69679 12.1397
253 1 -1.1104 6.5786 4.67721 9.28077
183 1 -1.1104 6.48304 1.93156 9.37555
248 1 -1.1104 6.70216 4.4205 12.0202
245 1 -1.1104 6.59861 7.43521 9.17718
380 2 2.2208 13.5539 17.381 13.3995
372 2 2.2208 10.6974 20.1572 13.652
206 1 -1.1104 12.2302 1.93662 6.48427
266 1 -1.1104 12.1377 4.79851 6.48475
209 1 -1.1104 9.41742 1.92422 6.37868
265 1 -1.1104 12.1539 7.60247 6.44544
213 1 -1.1104 12.2728 1.76251 12.3014
215 1 -1.1104 12.2553 1.75376 9.23711
218 2 2.2208 10.7462 3.31689 7.68707
221 1 -1.1104 9.38017 1.58984 12.1147
224 1 -1.1104 9.39254 2.02743 9.11258
226 2 2.2208 8.04506 3.2596 10.6398
268 1 -1.1104 9.53587 4.84071 9.27764
271 1 -1.1104 9.41196 4.47236 12.0738
273 1 -1.1104 9.42501 7.57096 9.21823
275 2 2.2208 8.04235 6.03113 7.85904
276 2 2.2208 10.9273 6.0201 10.6574
278 1 -1.1104 12.3974 7.55156 12.1415
279 1 -1.1104 12.0806 7.53108 9.27114
280 1 -1.1104 12.3213 4.60188 12.0487
283 1 -1.1104 12.3612 4.58071 9.32047
285 1 -1.1104 9.56483 7.23031 11.971
371 2 2.2208 5.27115 14.513 13.6207
108 1 -1.1104 1.05511 13.1013 6.38359
241 2 2.2208 5.25715 11.7631 10.6968
247 1 -1.1104 1.07509 10.4609 12.0713
250 2 2.2208 5.39147 8.95483 7.78539
252 1 -1.1104 1.06259 10.3086 9.36734
257 2 2.2208 2.48577 11.7462 7.94817
259 2 2.2208 2.33265 8.9687 10.7115
261 1 -1.1104 3.72237 10.5105 11.9316
263 1 -1.1104 3.88384 10.3413 9.09459
305 1 -1.1104 3.8309 13.1035 9.38096
299 1 -1.1104 0.961153 13.2738 12.2121
294 1 -1.1104 1.01183 13.2149 9.1877
287 1 -1.1104 3.88842 13.2934 12.1378
297 1 -1.1104 6.76337 13.0742 12.036
254 1 -1.1104 6.59438 10.3584 9.28619
249 1 -1.1104 6.53587 10.2057 11.9702
290 1 -1.1104 6.69249 13.3485 9.30648
357 2 2.2208 10.9825 3.32306 13.4453
329 1 -1.1104 12.1202 18.7616 12.1128
149 1 -1.1104 12.2966 15.851 6.60547
326 1 -1.1104 12.361 16.0177 12.0831
317 2 2.2208 8.09492 14.826 10.7282
111 1 -1.1104 6.55618 13.1054 6.58718
143 1 -1.1104 12.2769 13.1557 6.69734
264 1 -1.1104 9.33044 10.2646 9.21985
270 1 -1.1104 9.43105 10.1763 12.1426
272 2 2.2208 8.0795 8.84344 10.6513
274 2 2.2208 7.95105 11.8165 8.00027
277 2 2.2208 10.9093 11.7001 10.5138
281 1 -1.1104 12.2647 10.2934 11.9148
282 2 2.2208 10.7618 8.9157 7.82757
284 1 -1.1104 12.2404 10.3743 9.08209
319 1 -1.1104 9.54457 13.2056 9.20491
322 1 -1.1104 9.51509 13.2677 11.8994
328 1 -1.1104 12.2841 13.2381 9.3594
330 1 -1.1104 12.277 13.2001 12.1953
307 1 -1.1104 0.879608 15.9784 12.3517
361 2 2.2208 2.4426 11.7565 13.3775
325 2 2.2208 10.8536 14.5459 7.84509
320 2 2.2208 7.9465 17.3809 7.93053
369 2 2.2208 5.13696 20.2843 13.5075
300 2 2.2208 4.88886 17.2353 10.8546
126 1 -1.1104 3.92948 18.5564 6.52457
117 1 -1.1104 1.09802 16.0413 6.45344
118 1 -1.1104 6.55441 15.9058 6.46799
289 1 -1.1104 6.49715 15.9575 9.31422
288 1 -1.1104 6.58392 18.7355 9.38053
306 1 -1.1104 6.53159 15.9054 12.0891
298 1 -1.1104 0.992027 18.6125 12.256
295 2 2.2208 5.2035 14.5028 7.81929
293 2 2.2208 5.12255 20.0517 7.91579
296 1 -1.1104 6.53001 18.7219 12.2529
310 2 2.2208 2.42842 14.5338 10.7973
292 1 -1.1104 0.873024 16.0235 9.4171
286 1 -1.1104 3.66435 18.6678 12.0527
291 1 -1.1104 1.14385 18.7701 9.46975
309 2 2.2208 2.33392 20.0348 10.8714
308 1 -1.1104 3.84015 15.9677 12.244
199 2 2.2208 -0.473118 3.23864 7.92916
338 2 2.2208 13.6282 3.12381 10.6287
345 2 2.2208 13.6483 20.0183 10.7099
362 2 2.2208 13.6039 11.8492 13.547
313 2 2.2208 -0.381741 14.58 7.99772
335 2 2.2208 13.6319 8.94852 4.99491
83 2 2.2208 -0.200417 11.855 5.16766
231 2 2.2208 7.84772 -4.94966 7.93588
230 2 2.2208 13.5406 -2.33309 10.7089
365 2 2.2208 8.0911 11.6904 13.3743
27 2 2.2208 -0.201585 3.23517 2.36104
342 2 2.2208 -0.465589 11.785 10.638
311 2 2.2208 -0.373428 20.0184 7.94611
136 2 2.2208 -0.355098 20.1287 2.42087
204 2 2.2208 -0.382371 -5.18395 10.7296
343 2 2.2208 -0.30638 8.90792 7.85151
49 2 2.2208 13.4695 0.551331 2.25023
104 2 2.2208 13.5866 11.6861 2.31339
201 2 2.2208 -0.23058 0.560245 10.804
26 2 2.2208 -0.219251 0.406248 5.07964
312 2 2.2208 -0.42177 17.3728 10.7062
358 2 2.2208 -0.300973 9.03878 13.4647
376 2 2.2208 7.89464 17.3771 13.3875
367 2 2.2208 -0.364506 3.26425 13.4739
406 2 2.2208 5.29581 0.503 16.217
407 1 -1.1104 0.824041 -3.8165 17.6683
411 1 -1.1104 1.07506 -3.94929 14.9465
419 1 -1.1104 1.14609 -0.962144 17.7642
421 2 2.2208 5.30337 -2.14929 19.0834
423 1 -1.1104 0.805953 -1.19998 15.0501
427 1 -1.1104 3.67488 -3.9195 17.8497
429 2 2.2208 2.40418 0.290732 19.3057
430 1 -1.1104 3.93455 -3.97688 15.0763
434 2 2.2208 2.40963 -2.65138 16.4383
436 1 -1.1104 3.82281 -0.871218 17.8558
437 1 -1.1104 3.80931 -1.14937 15.1107
425 1 -1.1104 6.61422 -1.03936 14.8463
420 1 -1.1104 6.50034 -1.03932 17.6148
424 1 -1.1104 0.985591 -1.0778 20.5075
415 1 -1.1104 6.68453 -3.84597 15.1245
409 1 -1.1104 6.74963 -3.75909 17.8256
640 2 2.2208 2.62993 -5.18014 24.776
443 2 2.2208 -0.331749 -2.44881 19.2724
438 1 -1.1104 4.08722 -1.1653 20.7563
431 1 -1.1104 3.68665 -3.86236 20.7475
605 2 2.2208 13.562 17.4735 24.7705
440 2 2.2208 5.25398 -5.1926 16.3811
449 2 2.2208 10.811 0.552511 16.3706
450 1 -1.1104 12.2908 -3.86162 17.5177
452 1 -1.1104 12.2209 -3.6318 14.9371
456 1 -1.1104 12.4419 -1.01958 17.8533
457 2 2.2208 10.9615 -2.40956 19.0564
459 1 -1.1104 12.1515 -0.976059 15.0609
461 1 -1.1104 9.59721 -3.94432 17.8384
463 2 2.2208 8.12622 0.468879 19.1183
464 1 -1.1104 9.40558 -3.75917 14.9918
468 2 2.2208 8.02398 -2.21487 16.2156
470 1 -1.1104 9.51287 -0.882214 17.745
471 1 -1.1104 9.4513 -1.04029 14.9153
390 2 2.2208 10.8387 -5.25632 27.4933
384 2 2.2208 -0.35925 -5.07504 27.6349
383 2 2.2208 2.41475 3.16495 27.6834
405 2 2.2208 2.41725 20.1267 27.5835
465 1 -1.1104 9.39935 -3.68851 20.6435
400 2 2.2208 10.8181 11.7091 27.6856
408 1 -1.1104 1.06749 1.78272 17.8793
413 1 -1.1104 0.917059 1.71305 15.0945
422 2 2.2208 5.21131 3.21103 19.1321
428 1 -1.1104 3.87803 1.97473 17.7282
432 1 -1.1104 3.73801 1.80561 14.981
435 2 2.2208 2.45064 3.14552 16.3626
482 2 2.2208 5.23279 6.01964 16.1314
484 1 -1.1104 1.06087 7.4551 17.7343
486 1 -1.1104 1.10884 7.44819 14.9586
490 1 -1.1104 0.862962 4.55147 17.7863
495 1 -1.1104 1.15789 4.64848 14.8932
503 1 -1.1104 3.72008 7.45733 17.4601
504 2 2.2208 2.41771 6.07169 19.1409
506 1 -1.1104 3.96047 7.33213 14.6299
509 1 -1.1104 3.76174 4.74782 17.8323
511 1 -1.1104 3.93156 4.4905 14.8815
492 1 -1.1104 6.71344 4.69224 17.5904
410 1 -1.1104 6.63041 1.84956 17.7691
499 1 -1.1104 6.64438 4.51005 14.7823
488 1 -1.1104 6.73537 7.37769 14.8728
417 1 -1.1104 6.62789 1.80022 14.9656
477 2 2.2208 13.5668 -2.38142 16.3286
487 1 -1.1104 0.817612 7.63645 20.417
507 1 -1.1104 3.85631 7.54489 20.4711
414 1 -1.1104 1.16456 1.93657 20.6546
418 1 -1.1104 6.81344 1.82059 20.5247
496 1 -1.1104 1.25197 4.74092 20.6437
703 2 2.2208 -0.457076 11.7654 21.8882
375 2 2.2208 13.7162 20.1363 27.6256
485 1 -1.1104 6.83902 7.56817 17.7294
451 1 -1.1104 12.3271 1.93002 17.5654
454 1 -1.1104 12.3563 2.05104 14.9418
458 2 2.2208 11.1249 3.2922 18.9953
462 1 -1.1104 9.3164 1.82819 17.7189
466 1 -1.1104 9.63679 1.96791 14.8469
469 2 2.2208 8.04768 3.09803 16.1838
518 2 2.2208 10.9307 6.10821 16.2598
520 1 -1.1104 12.2971 7.42557 17.847
521 1 -1.1104 12.2289 7.6466 15.0875
523 1 -1.1104 12.4827 4.78561 17.8026
526 1 -1.1104 12.4604 4.70035 14.8059
530 1 -1.1104 9.43327 7.5217 17.5342
531 2 2.2208 8.09151 5.97982 19.1341
533 1 -1.1104 9.56063 7.60558 14.9322
536 1 -1.1104 9.75979 4.67867 17.6925
538 1 -1.1104 9.39216 4.65333 14.8738
480 2 2.2208 13.6321 14.4332 16.278
517 2 2.2208 13.664 11.675 19.0641
527 1 -1.1104 12.3385 4.78485 20.5806
389 2 2.2208 7.93692 3.4008 27.5468
393 2 2.2208 5.15758 6.07609 27.5683
483 2 2.2208 5.17073 11.6089 16.2181
491 1 -1.1104 1.03637 10.3019 17.5815
494 2 2.2208 5.33108 8.88092 18.9917
497 1 -1.1104 1.05685 10.4115 14.8748
505 2 2.2208 2.36433 11.6595 18.9608
508 2 2.2208 2.43482 8.83346 16.1869
510 1 -1.1104 3.91175 10.0622 17.4612
513 1 -1.1104 3.88437 10.1124 14.6194
546 1 -1.1104 0.974972 13.0202 17.7138
550 1 -1.1104 0.970218 13.1108 14.972
566 1 -1.1104 3.7772 12.9841 17.649
569 1 -1.1104 3.83712 13.0971 15.0428
501 1 -1.1104 6.56818 10.2214 14.8186
570 1 -1.1104 3.78216 13.0294 20.3643
514 1 -1.1104 3.88556 10.3341 20.4503
554 1 -1.1104 6.54372 12.9963 14.8624
555 1 -1.1104 6.60394 13.3071 20.5078
548 1 -1.1104 6.52283 13.2463 17.7324
606 2 2.2208 13.7143 20.0743 21.8998
699 2 2.2208 8.00275 14.4771 22.0569
498 1 -1.1104 1.05086 10.2031 20.4036
502 1 -1.1104 6.71944 10.2678 20.4178
551 1 -1.1104 0.977384 12.9108 20.3497
395 2 2.2208 5.22756 11.5337 27.5432
493 1 -1.1104 6.60278 10.4542 17.6176
669 2 2.2208 7.97193 -5.07783 24.9242
519 2 2.2208 10.7655 11.7899 16.3056
524 1 -1.1104 12.211 10.2859 17.7215
525 2 2.2208 10.895 8.9889 19.026
528 1 -1.1104 12.2916 10.4955 14.8401
532 2 2.2208 8.15639 11.684 18.8634
535 2 2.2208 8.05841 8.82171 16.2222
537 1 -1.1104 9.35531 10.2108 17.6904
540 1 -1.1104 9.20814 10.506 14.9229
582 1 -1.1104 12.115 13.1506 17.9166
584 1 -1.1104 12.1777 13.305 14.9693
593 1 -1.1104 9.48443 12.9857 17.6282
596 1 -1.1104 9.45121 13.3038 14.8221
585 1 -1.1104 12.2868 13.1485 20.5139
541 1 -1.1104 9.58264 10.3352 20.4744
481 2 2.2208 -0.372075 5.95669 16.2447
597 1 -1.1104 9.4214 13.1041 20.3922
404 2 2.2208 5.24454 17.4111 27.5664
573 2 2.2208 2.32035 14.5493 16.3103
560 2 2.2208 5.13779 14.3913 19.1103
545 2 2.2208 5.18894 17.4083 16.3377
547 1 -1.1104 0.91742 18.6192 17.8839
552 1 -1.1104 0.818802 18.7452 15.0996
558 1 -1.1104 0.814076 15.8079 18.1083
561 2 2.2208 5.06542 20.1445 19.1209
562 1 -1.1104 0.843501 15.854 15.1987
567 1 -1.1104 3.82572 18.6511 17.668
568 2 2.2208 2.25985 17.167 19.1149
571 1 -1.1104 3.81528 18.8411 15.0355
574 2 2.2208 2.22776 20.0068 16.2547
575 1 -1.1104 3.66383 15.807 17.8374
576 1 -1.1104 3.81314 15.9182 15.1502
564 1 -1.1104 6.94063 15.7885 14.8406
556 1 -1.1104 6.47389 18.7484 14.9013
549 1 -1.1104 6.70188 18.757 17.9123
559 1 -1.1104 6.65409 15.9913 17.7416
553 1 -1.1104 0.932248 18.5378 20.7407
557 1 -1.1104 6.84146 18.9066 20.5599
563 1 -1.1104 1.03234 15.7058 20.8304
577 1 -1.1104 3.83302 15.8332 20.4442
565 1 -1.1104 6.7462 15.9602 20.6213
633 1 -1.1104 12.2009 18.5478 23.3962
700 2 2.2208 8.09014 20.1389 21.9494
592 1 -1.1104 12.3575 15.9417 20.5104
589 2 2.2208 10.8187 14.5042 19.1755
600 2 2.2208 8.03931 14.541 16.4055
581 2 2.2208 10.9216 17.1299 16.4821
583 1 -1.1104 12.3055 18.7589 17.8567
586 1 -1.1104 12.1528 18.7391 15.0168
588 1 -1.1104 12.4347 15.7822 17.7867
590 2 2.2208 10.69 20.1942 19.0607
591 1 -1.1104 12.3524 15.9171 14.9485
594 1 -1.1104 9.38907 18.5582 17.9094
595 2 2.2208 8.18608 17.2452 19.3594
598 1 -1.1104 9.22406 18.7674 15.0122
601 2 2.2208 7.67615 20.0665 16.3415
602 1 -1.1104 9.53541 15.833 17.9896
603 1 -1.1104 9.61922 15.7289 15.1958
604 1 -1.1104 9.51587 15.7208 20.8485
725 2 2.2208 -0.355338 14.5367 24.728
412 1 -1.1104 1.02808 -3.8563 20.6995
416 1 -1.1104 6.60635 -3.78064 20.5452
732 1 -1.1104 6.78922 15.8254 26.3027
401 2 2.2208 -0.338089 17.3375 27.6346
701 1 -1.1104 9.59407 15.962 23.6795
609 2 2.2208 5.50618 0.490738 21.9356
610 1 -1.1104 1.28924 -3.9397 23.3833
614 1 -1.1104 1.12598 -3.72145 26.1105
618 1 -1.1104 1.01425 -0.985567 23.3788
620 2 2.2208 5.37049 -2.32602 24.9505
622 1 -1.1104 1.00031 -0.744614 26.0015
624 1 -1.1104 3.94254 -3.69962 23.4526
626 2 2.2208 2.59141 0.551335 24.8156
627 1 -1.1104 3.97918 -3.80884 26.1362
629 2 2.2208 2.53967 -2.38099 22.1759
631 1 -1.1104 4.11538 -0.991844 23.49
632 1 -1.1104 3.8183 -0.796788 26.3114
619 1 -1.1104 6.92631 -0.69868 23.2124
623 1 -1.1104 6.61162 -0.691431 26.121
616 1 -1.1104 6.75184 -3.55076 26.3124
612 1 -1.1104 6.58837 -3.76515 23.3485
426 1 -1.1104 6.80644 -0.990424 20.4342
607 2 2.2208 11.0471 17.2904 21.9749
638 2 2.2208 11.0113 14.5646 24.8331
641 2 2.2208 10.8617 20.0777 24.7913
698 1 -1.1104 9.53329 18.9311 26.3231
472 1 -1.1104 9.48998 -1.08234 20.4947
460 1 -1.1104 12.2913 -0.921425 20.508
670 1 -1.1104 6.7609 18.6569 26.1735
453 1 -1.1104 12.3947 -3.83733 20.5091
645 2 2.2208 10.8592 0.316109 21.7711
646 1 -1.1104 12.4277 -3.94725 23.4918
648 1 -1.1104 12.2901 -3.75403 26.2793
650 1 -1.1104 12.4335 -1.25015 23.3427
651 2 2.2208 10.9437 -2.42899 24.7498
653 1 -1.1104 12.2558 -1.10491 26.2874
654 1 -1.1104 9.53872 -3.68608 23.3697
656 2 2.2208 8.14176 0.579595 24.8532
657 1 -1.1104 9.45958 -3.75588 26.2366
659 2 2.2208 8.01611 -2.23095 21.9651
661 1 -1.1104 9.69161 -0.835711 23.3035
662 1 -1.1104 9.48292 -0.948218 26.1708
668 2 2.2208 10.8402 -5.18625 22.0141
635 1 -1.1104 12.3062 18.8646 26.2688
663 1 -1.1104 12.3889 16.154 26.1853
444 2 2.2208 -0.394652 6.24245 22.0421
489 1 -1.1104 6.88602 7.47775 20.5061
512 1 -1.1104 3.99007 4.73678 20.503
500 1 -1.1104 6.64318 4.5897 20.4058
433 1 -1.1104 3.92466 1.73431 20.6533
611 1 -1.1104 1.23582 1.94177 23.5489
615 1 -1.1104 0.861008 1.9649 26.0635
621 2 2.2208 5.29987 3.24797 24.7744
625 1 -1.1104 3.95469 1.82573 23.5235
628 1 -1.1104 3.88109 2.0402 26.3119
630 2 2.2208 2.46105 3.28397 21.9852
674 2 2.2208 5.29922 6.148 21.9102
676 1 -1.1104 1.1975 7.5372 23.0839
678 1 -1.1104 0.957811 7.64918 26.0378
680 1 -1.1104 0.984742 4.74288 23.3501
685 1 -1.1104 1.36466 4.91481 26.4872
689 1 -1.1104 3.87045 7.56633 23.5311
690 2 2.2208 2.51843 6.23472 24.9228
694 1 -1.1104 3.90311 4.67265 23.35
696 1 -1.1104 3.95487 4.80318 26.1954
692 1 -1.1104 3.83809 7.54833 26.2542
617 1 -1.1104 6.7615 2.00741 26.2048
613 1 -1.1104 6.74111 1.94994 23.3831
677 1 -1.1104 6.64438 7.42912 23.2921
682 1 -1.1104 6.78017 4.74834 23.4291
679 1 -1.1104 6.71714 7.38465 26.2014
687 1 -1.1104 6.60855 4.79227 26.2094
442 2 2.2208 -0.405902 0.39622 16.4159
478 2 2.2208 13.5757 20.1942 16.4105
534 1 -1.1104 9.48843 7.4455 20.5819
388 2 2.2208 8.26168 -2.26125 27.6272
467 1 -1.1104 9.56181 1.7925 20.4903
539 1 -1.1104 9.57853 4.54799 20.5514
455 1 -1.1104 12.4421 1.83511 20.4196
522 1 -1.1104 12.2777 7.53888 20.6537
647 1 -1.1104 12.4216 1.78171 23.1257
649 1 -1.1104 12.3905 1.74408 25.936
652 2 2.2208 10.931 3.15325 24.6583
655 1 -1.1104 9.63523 1.92785 23.2609
658 1 -1.1104 9.52353 1.92903 26.2443
660 2 2.2208 8.02165 3.28235 22.0759
706 1 -1.1104 9.39892 4.72468 26.015
708 1 -1.1104 9.55732 4.62533 23.4399
710 1 -1.1104 9.21638 7.71451 26.0326
712 2 2.2208 8.13393 6.12328 24.7986
713 2 2.2208 10.8274 6.12474 22.0311
715 1 -1.1104 12.1094 7.52771 23.2566
716 1 -1.1104 11.971 7.64275 26.1761
717 1 -1.1104 12.2612 4.68297 23.3864
720 1 -1.1104 12.1568 4.67799 26.199
722 1 -1.1104 9.40047 7.42781 23.3084
378 2 2.2208 10.7916 17.4401 27.6228
675 2 2.2208 5.31594 11.6495 21.8516
681 1 -1.1104 0.920542 10.3016 23.1031
684 2 2.2208 5.16219 8.90382 24.7719
686 1 -1.1104 1.07409 10.364 25.9549
691 2 2.2208 2.50377 11.6725 24.683
693 2 2.2208 2.45859 9.04284 21.8646
695 1 -1.1104 3.75136 10.3103 23.3535
697 1 -1.1104 3.85109 10.2968 26.1795
741 1 -1.1104 1.08502 13.0756 23.3542
746 1 -1.1104 3.92263 13.089 25.9477
731 1 -1.1104 3.94571 13.1991 23.2735
735 1 -1.1104 1.03157 13.0577 26.2262
688 1 -1.1104 6.71735 10.0672 26.1411
730 1 -1.1104 6.8151 12.9542 26.1025
739 1 -1.1104 6.59689 13.1016 23.383
683 1 -1.1104 6.5093 10.302 23.3417
387 2 2.2208 10.8077 0.384968 27.6445
402 2 2.2208 13.5146 8.93525 27.5188
529 1 -1.1104 12.35 10.5099 20.4777
379 2 2.2208 7.90107 20.19 27.5855
673 1 -1.1104 9.67173 13.2415 26.104
634 1 -1.1104 12.4107 13.185 26.2308
664 1 -1.1104 9.39216 13.1024 23.3389
608 1 -1.1104 12.3818 13.0303 23.3139
705 1 -1.1104 9.37524 10.4308 26.2821
707 1 -1.1104 9.41999 10.2154 23.4433
709 2 2.2208 8.06587 8.96265 21.9429
711 2 2.2208 8.07017 11.5641 24.8083
714 2 2.2208 10.9108 11.8468 21.9053
718 1 -1.1104 12.4333 10.327 23.1876
719 2 2.2208 10.7283 8.86827 24.7091
721 1 -1.1104 11.9853 10.4464 26.0574
704 1 -1.1104 9.47715 16.0335 26.3099
572 1 -1.1104 3.86912 18.6295 20.5368
667 2 2.2208 8.23966 17.2146 24.8559
738 2 2.2208 5.40065 14.5275 24.7888
736 1 -1.1104 6.52474 18.7389 23.1795
727 2 2.2208 2.64627 14.4786 21.9962
744 2 2.2208 2.52277 17.248 24.8569
743 1 -1.1104 3.899 18.7123 26.2315
742 2 2.2208 5.30251 17.3975 21.8987
740 1 -1.1104 0.904115 18.562 23.5398
750 2 2.2208 2.37268 19.9836 22.044
749 1 -1.1104 3.98628 15.9022 23.3618
748 1 -1.1104 1.01047 15.7421 23.4129
745 1 -1.1104 3.99112 15.8909 26.2608
729 1 -1.1104 3.72164 18.6334 23.4284
733 1 -1.1104 1.06191 18.6973 26.3505
734 1 -1.1104 1.03216 15.7034 26.0992
737 2 2.2208 5.22676 20.0818 24.7198
747 1 -1.1104 6.82046 15.9108 23.5359
445 2 2.2208 13.5744 8.96108 21.8574
396 2 2.2208 -0.504013 11.5549 27.5218
665 1 -1.1104 9.39622 18.6996 23.437
599 1 -1.1104 9.48637 18.5536 20.7517
636 1 -1.1104 12.2423 15.8224 23.4198
587 1 -1.1104 12.3537 18.7903 20.4559
386 2 2.2208 -0.321291 0.443544 27.5859
382 2 2.2208 2.50636 -2.28959 27.6372
398 2 2.2208 10.7642 6.11887 27.511
399 2 2.2208 8.05413 8.83787 27.6334
391 2 2.2208 13.6793 -2.38101 27.7458
702 2 2.2208 -0.395081 9.05832 24.7143
515 2 2.2208 -0.360159 8.91702 19.0198
392 2 2.2208 13.5737 3.29374 27.5783
728 2 2.2208 13.591 6.06542 24.7803
403 2 2.2208 2.44529 14.4115 27.5116
394 2 2.2208 2.36993 9.04419 27.4954
642 2 2.2208 -0.255038 -2.32519 24.8241
381 2 2.2208 5.24289 0.559067 27.5856
377 2 2.2208 8.02488 14.4715 27.5714
751 2 2.2208 5.21143 22.7538 5.01917
753 1 -1.1104 0.881942 24.5417 0.730165
754 1 -1.1104 0.935144 24.317 3.54904
755 1 -1.1104 1.08372 21.6781 1.07105
757 2 2.2208 5.28452 25.8054 2.26371
758 1 -1.1104 1.04735 21.6827 3.72013
760 1 -1.1104 3.76334 24.4629 0.979115
761 2 2.2208 2.52811 22.9724 2.37109
763 1 -1.1104 3.95254 24.1762 3.69055
764 2 2.2208 2.38517 25.6948 5.11462
765 1 -1.1104 3.87713 21.6527 0.788728
767 1 -1.1104 3.76576 21.5329 3.66147
759 1 -1.1104 0.972138 27.0498 3.67793
768 1 -1.1104 3.81843 26.938 3.58686
773 1 -1.1104 6.58925 24.2586 3.54053
772 1 -1.1104 6.47218 24.3779 0.753244
892 1 -1.1104 0.741005 24.2629 6.53917
895 1 -1.1104 1.10738 27.002 6.53421
756 1 -1.1104 0.889005 27.2691 0.941644
775 1 -1.1104 6.59601 27.354 0.928756
766 1 -1.1104 3.78587 27.1691 0.900103
898 1 -1.1104 3.79288 24.2232 6.32758
894 1 -1.1104 0.837814 21.5199 6.52934
896 1 -1.1104 6.73123 21.4119 6.50368
899 1 -1.1104 3.8489 21.4292 6.55698
982 2 2.2208 -0.339377 37.0689 8.00471
776 1 -1.1104 6.51506 21.402 3.51898
774 1 -1.1104 6.51478 21.7349 0.634704
778 2 2.2208 10.9953 22.9744 4.97355
780 1 -1.1104 12.0728 24.5144 0.813675
781 1 -1.1104 12.4025 24.2573 3.72161
782 1 -1.1104 12.2053 21.6513 0.816836
784 2 2.2208 10.8707 25.7051 2.23709
785 1 -1.1104 12.3203 21.6329 3.49742
787 1 -1.1104 9.39437 24.3439 0.836157
788 2 2.2208 7.95965 22.7985 2.16749
790 1 -1.1104 9.77246 24.212 3.57118
791 2 2.2208 8.02883 25.6314 5.04136
792 1 -1.1104 9.32456 21.2999 0.948646
794 1 -1.1104 9.41222 21.49 3.79635
925 1 -1.1104 12.2808 24.4144 6.52855
793 1 -1.1104 9.35775 27.2819 0.782725
795 1 -1.1104 9.49659 27.1956 3.63091
783 1 -1.1104 12.093 27.1948 0.709008
786 1 -1.1104 12.2731 27.0265 3.55751
929 1 -1.1104 9.68791 21.5123 6.50879
927 1 -1.1104 12.1055 27.2869 6.38103
926 1 -1.1104 12.4616 21.5597 6.34201
1107 2 2.2208 13.6193 34.1596 13.495
777 1 -1.1104 6.6316 27.1127 3.96118
752 2 2.2208 5.1282 28.5909 5.02047
762 2 2.2208 2.30441 28.5007 2.39607
800 1 -1.1104 0.776309 30.2172 0.873579
803 1 -1.1104 1.03991 29.9223 3.83214
806 1 -1.1104 0.951946 32.7809 1.11825
807 2 2.2208 5.11963 31.3668 2.20947
809 1 -1.1104 1.02822 32.8403 3.90499
811 1 -1.1104 3.6973 30.0365 1.16647
814 1 -1.1104 3.80191 29.8105 3.79519
816 2 2.2208 2.40554 31.4025 5.14888
818 1 -1.1104 3.81742 32.9684 1.02087
819 1 -1.1104 3.90584 32.7416 3.75952
825 1 -1.1104 6.61638 32.6832 0.826616
823 1 -1.1104 6.50231 30.0486 0.748729
824 1 -1.1104 6.47474 29.9973 3.40432
957 1 -1.1104 3.7796 32.605 6.47055
951 1 -1.1104 6.33135 29.9398 6.33304
810 1 -1.1104 6.67064 32.9229 3.68881
954 1 -1.1104 6.57076 32.64 6.44538
949 1 -1.1104 1.08161 29.8909 6.66496
953 1 -1.1104 0.81706 32.9735 6.80621
955 1 -1.1104 3.66775 29.9268 6.39721
1079 2 2.2208 13.5477 31.3342 10.7133
779 2 2.2208 10.8506 28.4972 5.03348
789 2 2.2208 8.03885 28.609 2.29501
827 1 -1.1104 12.2257 29.8708 0.893296
829 1 -1.1104 12.2069 29.9356 3.74094
831 1 -1.1104 12.2408 32.7234 1.04138
832 2 2.2208 10.7962 31.4182 2.33024
834 1 -1.1104 12.2002 32.7232 3.70445
835 1 -1.1104 9.52736 30.1296 0.957368
838 1 -1.1104 9.26515 29.793 3.84807
840 2 2.2208 8.00088 31.2459 5.36188
842 1 -1.1104 9.3991 32.7756 0.81473
843 1 -1.1104 9.42786 32.6705 3.74193
988 1 -1.1104 9.41377 32.6758 6.54782
983 1 -1.1104 12.0063 30.2056 6.4526
1072 2 2.2208 13.5175 28.6643 8.00242
1130 2 2.2208 2.30548 31.4512 -0.496632
813 2 2.2208 2.38653 34.2346 2.40492
799 2 2.2208 5.16981 34.0325 5.16936
801 1 -1.1104 0.861333 35.5629 1.10034