ITEM: TIMESTEP
10000
ITEM: NUMBER OF ATOMS
17760
ITEM: BOX BOUNDS pp pp pp
-4.1625001540596385e-01 2.7756250015406195e+01
-5.2357372750255191e+00 3.3331573727502229e+02
-4.0824088518428936e-01 2.7748240885184380e+01
ITEM: ATOMS id type q x y z
1 2 2.2208 5.34133 0.569845 5.16421
2 1 -1.1104 0.705186 -3.75767 0.816804
6 1 -1.1104 1.06137 -3.53097 3.86199
10 1 -1.1104 1.00238 -1.05694 1.01227
12 2 2.2208 5.23095 -2.28229 2.21405
14 1 -1.1104 1.08125 -0.8421 3.72439
16 1 -1.1104 3.77834 -3.75495 0.930841
18 2 2.2208 2.36412 0.477291 2.40415
19 1 -1.1104 3.82234 -3.81527 3.68505
21 2 2.2208 2.4645 -2.18401 5.18443
23 1 -1.1104 3.77978 -0.921206 0.967827
24 1 -1.1104 3.80057 -0.789652 3.74993
104 2 2.2208 13.6868 11.7318 2.28796
340 2 2.2208 13.6378 11.5077 8.01211
204 2 2.2208 -0.510808 -5.13209 10.8366
335 2 2.2208 13.5793 8.83602 5.12475
367 2 2.2208 -0.318194 3.32345 13.4922
11 1 -1.1104 6.77248 -0.982018 0.920744
4 1 -1.1104 6.54438 -3.68057 0.795174
8 1 -1.1104 6.62399 -3.80576 3.60854
233 2 2.2208 13.6564 -5.12897 7.84255
15 1 -1.1104 6.67413 -0.955198 3.69166
171 1 -1.1104 6.65165 -1.0353 6.52088
347 2 2.2208 2.47434 -5.13251 13.4486
31 2 2.2208 10.8015 0.35115 5.0018
32 1 -1.1104 12.2744 -4.2495 0.762495
34 1 -1.1104 12.2879 -3.67395 3.68465
36 1 -1.1104 12.3835 -1.23514 0.896247
37 2 2.2208 10.8246 -2.55685 2.29159
39 1 -1.1104 12.3104 -0.747789 3.74773
40 1 -1.1104 9.1995 -3.62747 0.951882
42 2 2.2208 8.07637 0.43097 2.32673
43 1 -1.1104 9.51147 -3.84718 3.57561
45 2 2.2208 8.08091 -2.49175 5.05217
47 1 -1.1104 9.48487 -0.923771 0.986098
48 1 -1.1104 9.43417 -0.959018 3.5988
231 2 2.2208 8.08873 -5.02249 7.84418
202 2 2.2208 2.43899 -5.10381 8.01893
168 1 -1.1104 6.70393 -3.85265 6.55178
28 2 2.2208 2.36503 -5.21125 2.29267
393 2 2.2208 5.17656 5.98709 -0.391343
3 1 -1.1104 1.10098 1.77314 1.02393
7 1 -1.1104 1.01055 1.82462 3.79231
13 2 2.2208 5.09561 3.303 2.38931
17 1 -1.1104 3.85895 1.91974 1.02606
20 1 -1.1104 3.84093 1.95882 3.85867
22 2 2.2208 2.30066 3.32827 5.16762
54 2 2.2208 5.15105 5.98276 5.25977
56 1 -1.1104 1.00536 7.57129 0.95205
58 1 -1.1104 0.937204 7.5569 3.78417
60 1 -1.1104 0.888969 4.74064 0.898611
67 1 -1.1104 0.729325 4.73437 3.67711
71 1 -1.1104 3.81563 7.32617 0.943928
72 2 2.2208 2.40503 6.06499 2.32986
74 1 -1.1104 3.80197 7.52907 3.84003
76 1 -1.1104 3.77779 4.57491 1.00654
79 1 -1.1104 3.59493 4.71401 3.77065
63 1 -1.1104 6.5326 4.65385 0.992824
234 1 -1.1104 1.03696 7.36774 6.48807
5 1 -1.1104 6.72871 1.76633 1.04463
59 1 -1.1104 6.48666 7.35267 3.83693
203 2 2.2208 5.40164 -5.14871 10.6544
238 1 -1.1104 3.81102 7.44108 6.59031
237 1 -1.1104 6.83366 4.49477 6.72125
167 1 -1.1104 0.844544 1.85082 6.6145
173 1 -1.1104 3.76716 1.87921 6.60881
9 1 -1.1104 6.5984 1.78814 3.63721
57 1 -1.1104 6.73446 7.45266 0.932098
69 1 -1.1104 6.54415 4.44745 3.75361
33 1 -1.1104 12.2842 1.80884 0.889132
35 1 -1.1104 12.0969 1.93319 3.7878
38 2 2.2208 10.7688 3.16958 2.3601
41 1 -1.1104 9.45437 1.80895 0.858513
44 1 -1.1104 9.42587 1.73757 3.70549
46 2 2.2208 8.07364 3.31739 5.14767
84 2 2.2208 10.7882 6.04852 5.08108
86 1 -1.1104 12.3264 7.32233 0.806955
87 1 -1.1104 12.199 7.412 3.78565
88 1 -1.1104 12.0923 4.57752 0.997321
92 1 -1.1104 12.0647 4.55352 3.81026
94 1 -1.1104 9.46467 7.29625 0.895339
95 2 2.2208 8.03676 6.06102 2.49005
97 1 -1.1104 9.41511 7.44857 3.71371
99 1 -1.1104 9.36764 4.56293 1.11074
102 1 -1.1104 9.3794 4.63045 3.82725
266 1 -1.1104 12.2087 4.38214 6.577
265 1 -1.1104 12.147 7.36996 6.5467
169 1 -1.1104 6.53493 1.93394 6.55517
269 1 -1.1104 9.56887 4.55381 6.72553
346 2 2.2208 -0.423663 -2.27591 13.4039
55 2 2.2208 5.13746 11.5294 5.25867
61 1 -1.1104 0.889007 10.2701 0.896182
66 2 2.2208 5.22667 8.89807 2.52216
68 1 -1.1104 1.22388 10.3414 3.81558
73 2 2.2208 2.4733 11.6975 2.35618
75 2 2.2208 2.33913 8.8314 5.23244
77 1 -1.1104 3.84245 10.1627 1.13552
80 1 -1.1104 3.77281 10.2566 3.89859
107 1 -1.1104 0.909031 12.9462 0.77275
113 1 -1.1104 0.895642 13.3377 3.82906
123 1 -1.1104 3.8901 12.9616 1.03864
128 1 -1.1104 3.54553 13.1126 3.73137
108 1 -1.1104 1.14319 13.0715 6.48598
70 1 -1.1104 6.46621 10.0928 4.12715
65 1 -1.1104 6.56737 10.1668 6.75007
115 1 -1.1104 6.50659 12.9372 3.74453
64 1 -1.1104 6.67638 10.1273 1.28185
124 1 -1.1104 3.86751 13.1062 6.74799
78 1 -1.1104 3.78155 10.369 6.57761
62 1 -1.1104 0.818971 10.2138 6.59832
324 2 2.2208 10.9574 20.0498 8.012
110 1 -1.1104 6.65288 12.8903 1.11295
85 2 2.2208 10.659 11.6855 5.0683
89 1 -1.1104 11.9735 10.1328 1.08806
91 2 2.2208 10.7695 8.7116 2.41578
93 1 -1.1104 12.209 10.34 3.8886
96 2 2.2208 8.20845 11.6472 2.45419
98 2 2.2208 8.01224 8.85949 5.34394
100 1 -1.1104 9.32312 10.005 0.784017
103 1 -1.1104 9.29239 10.2079 3.81034
142 1 -1.1104 12.2953 12.8659 0.688539
146 1 -1.1104 12.0348 13.1119 3.66528
153 1 -1.1104 9.47159 12.8343 0.93152
158 1 -1.1104 9.53936 13.2619 3.66181
111 1 -1.1104 6.45148 13.1207 6.4928
90 1 -1.1104 11.9754 10.199 6.6922
143 1 -1.1104 12.3843 12.9725 6.41735
154 1 -1.1104 9.30905 13.1684 6.59734
101 1 -1.1104 9.35066 10.2117 6.73848
318 1 -1.1104 9.43616 18.683 9.35159
119 2 2.2208 5.2837 14.3755 2.44949
130 2 2.2208 2.39527 14.6378 5.12554
106 2 2.2208 5.43382 17.2653 5.27331
109 1 -1.1104 0.948983 18.5981 0.86951
114 1 -1.1104 0.831483 18.6753 3.64825
116 1 -1.1104 0.985832 15.9117 0.822314
120 2 2.2208 5.12512 19.9508 2.36011
121 1 -1.1104 0.990043 15.8039 3.67188
125 1 -1.1104 3.72869 18.7084 0.915206
127 2 2.2208 2.4614 17.3612 2.42229
129 1 -1.1104 3.72582 18.6597 3.88645
131 2 2.2208 2.35756 19.9921 5.12039
132 1 -1.1104 3.6232 15.7697 0.993121
134 1 -1.1104 3.93083 16.0404 3.77803
117 1 -1.1104 0.851993 15.8188 6.41607
302 1 -1.1104 0.933749 18.5479 6.45249
126 1 -1.1104 3.64153 18.5559 6.4672
133 1 -1.1104 3.84637 15.8329 6.43741
118 1 -1.1104 6.54092 15.9112 6.79535
52 2 2.2208 10.8808 -5.29277 4.95504
306 1 -1.1104 6.47273 15.7427 12.1233
138 1 -1.1104 6.52163 18.3161 0.993048
150 2 2.2208 10.8774 14.4101 2.20556
122 1 -1.1104 6.62718 15.867 3.92236
139 1 -1.1104 6.67099 18.4032 3.67613
140 1 -1.1104 6.50027 15.5702 0.831042
160 2 2.2208 8.0038 14.5982 5.30474
141 2 2.2208 10.7093 17.113 5.10085
144 1 -1.1104 12.2739 18.6302 0.765869
147 1 -1.1104 12.0909 18.5716 3.58634
148 1 -1.1104 12.3374 15.7933 0.74652
151 2 2.2208 10.8417 19.972 2.40696
152 1 -1.1104 12.1521 15.9422 3.57059
155 1 -1.1104 9.54606 18.5064 0.820543
157 2 2.2208 8.05831 17.1825 2.23737
159 1 -1.1104 9.4273 18.4298 3.70268
161 2 2.2208 8.09363 19.9112 5.12942
162 1 -1.1104 9.54443 15.6339 0.675236
164 1 -1.1104 9.40957 15.7427 3.65086
145 1 -1.1104 12.1126 18.5091 6.54891
163 1 -1.1104 9.43687 16.0026 6.65412
112 1 -1.1104 6.70291 18.6192 6.63326
156 1 -1.1104 9.41277 18.8126 6.47467
149 1 -1.1104 12.301 15.8032 6.49239
332 2 2.2208 13.6639 17.1103 8.02524
166 1 -1.1104 0.964918 -3.6882 6.42143
172 1 -1.1104 3.84851 -3.82959 6.37721
174 1 -1.1104 3.71584 -0.909248 6.60754
348 2 2.2208 5.3334 -2.23219 13.6227
321 1 -1.1104 9.46524 18.5873 12.1556
170 1 -1.1104 0.771162 -0.892705 6.48822
175 2 2.2208 5.26954 0.352773 10.7274
176 1 -1.1104 1.14385 -3.84638 12.0994
180 1 -1.1104 0.901904 -3.51099 9.26312
184 1 -1.1104 1.23466 -0.926812 11.9483
186 2 2.2208 5.16209 -2.3676 7.81148
188 1 -1.1104 0.98841 -0.903352 9.30138
190 1 -1.1104 4.01097 -3.77645 12.2136
192 2 2.2208 2.27299 0.510114 7.90782
193 1 -1.1104 3.89516 -3.651 9.31959
195 2 2.2208 2.54294 -2.3704 10.8191
197 1 -1.1104 3.81716 -1.11072 12.2005
198 1 -1.1104 3.67455 -0.867152 9.32352
178 1 -1.1104 6.73246 -3.84675 12.0931
349 2 2.2208 2.34939 0.312918 13.5397
185 1 -1.1104 6.77175 -1.13423 12.1982
189 1 -1.1104 6.64966 -1.22949 9.35187
205 1 -1.1104 12.3147 -3.74557 6.57456
207 1 -1.1104 12.4554 -1.16372 6.48612
208 1 -1.1104 9.41883 -3.75349 6.26255
182 1 -1.1104 6.77688 -3.81671 9.39301
210 1 -1.1104 9.46967 -1.0746 6.49467
211 2 2.2208 11.0189 0.304383 10.7779
212 1 -1.1104 12.2106 -3.89545 12.2348
214 1 -1.1104 12.4704 -3.6872 9.27011
216 1 -1.1104 12.3814 -1.07675 12.1892
217 2 2.2208 10.9956 -2.35367 7.94943
219 1 -1.1104 12.2635 -0.953058 9.34182
220 1 -1.1104 9.56369 -3.9933 12.1242
222 2 2.2208 8.098 0.283042 7.85376
223 1 -1.1104 9.76203 -3.9115 9.15235
225 2 2.2208 8.11955 -2.40406 10.7441
227 1 -1.1104 9.54527 -1.15077 12.1033
228 1 -1.1104 9.53123 -1.12896 9.29571
288 1 -1.1104 6.44218 18.5849 9.39932
236 1 -1.1104 0.900246 4.74972 6.41953
359 2 2.2208 2.5009 5.98481 13.5246
358 2 2.2208 -0.38602 8.65191 13.5598
239 1 -1.1104 3.84151 4.7796 6.68541
177 1 -1.1104 0.932846 1.67461 12.2947
181 1 -1.1104 1.0249 1.88312 9.41289
187 2 2.2208 5.25885 3.19178 7.98513
191 1 -1.1104 3.78678 1.77302 12.3215
194 1 -1.1104 4.02347 1.7163 9.56441
196 2 2.2208 2.44963 3.02641 10.9085
240 2 2.2208 5.07061 5.87107 10.664
242 1 -1.1104 1.07086 7.25712 12.1426
244 1 -1.1104 0.971243 7.39509 9.46513
246 1 -1.1104 1.0062 4.55104 12.0075
251 1 -1.1104 0.948684 4.52366 9.24848
255 1 -1.1104 3.76438 7.34054 12.1919
256 2 2.2208 2.24611 6.05303 8.0307
258 1 -1.1104 3.7587 7.4954 9.3399
260 1 -1.1104 3.95641 4.346 12.2108
262 1 -1.1104 3.71536 4.51392 9.30793
245 1 -1.1104 6.54692 7.40733 9.39565
248 1 -1.1104 6.90662 4.35132 12.0328
206 1 -1.1104 11.9742 1.4566 6.69228
183 1 -1.1104 6.63817 1.55971 9.26994
235 1 -1.1104 6.76036 7.28788 6.62407
267 1 -1.1104 9.49564 7.28315 6.49711
243 1 -1.1104 6.50306 7.42111 11.9449
253 1 -1.1104 6.49822 4.55393 9.29169
179 1 -1.1104 6.56284 1.69074 12.2703
209 1 -1.1104 9.29112 1.62205 6.40844
213 1 -1.1104 12.4097 1.64929 12.0148
215 1 -1.1104 12.06 1.90205 9.38655
218 2 2.2208 10.8516 3.10728 8.01283
221 1 -1.1104 9.59293 1.72525 12.0483
224 1 -1.1104 9.41461 1.75179 9.2806
226 2 2.2208 8.07303 3.06778 10.6079
268 1 -1.1104 9.45372 4.67877 9.48133
271 1 -1.1104 9.61161 4.60393 12.2956
273 1 -1.1104 9.41185 7.56353 9.49789
275 2 2.2208 8.06692 6.08171 8.07285
276 2 2.2208 10.8755 6.00106 10.8001
278 1 -1.1104 12.4368 7.43513 12.1323
279 1 -1.1104 12.2274 7.51638 9.31433
280 1 -1.1104 12.4328 4.61318 12.2298
283 1 -1.1104 12.3025 4.58811 9.48312
285 1 -1.1104 9.33403 7.32763 12.3248
29 2 2.2208 5.17604 -5.18714 5.04187
361 2 2.2208 2.39364 11.452 13.6788
305 1 -1.1104 3.73701 13.1331 9.39308
299 1 -1.1104 1.0894 13.0141 12.1022
294 1 -1.1104 0.891479 12.9089 9.37735
241 2 2.2208 5.11005 11.498 10.8586
247 1 -1.1104 0.90612 10.1598 12.2516
250 2 2.2208 5.15982 8.91668 8.06001
252 1 -1.1104 1.07271 10.1757 9.4187
257 2 2.2208 2.39812 11.7612 7.97373
259 2 2.2208 2.27872 8.81319 10.9479
261 1 -1.1104 3.82591 10.013 12.3522
263 1 -1.1104 3.73339 10.3709 9.47111
287 1 -1.1104 3.68431 12.8005 12.3486
249 1 -1.1104 6.65058 10.1053 12.3497
297 1 -1.1104 6.45491 13.0386 12.0934
290 1 -1.1104 6.5672 12.8419 9.38501
363 2 2.2208 7.93943 5.96755 13.565
345 2 2.2208 13.5817 20.0471 10.9335
336 2 2.2208 13.7295 20.0137 5.11587
254 1 -1.1104 6.54692 10.2303 9.49548
330 1 -1.1104 12.0709 12.9662 12.1004
328 1 -1.1104 12.3542 12.9171 9.30437
322 1 -1.1104 9.26466 12.9397 12.1241
319 1 -1.1104 9.6154 13.0769 9.37
264 1 -1.1104 9.29326 10.4145 9.39137
270 1 -1.1104 9.52316 10.0545 12.2037
272 2 2.2208 7.97871 8.84294 10.8763
274 2 2.2208 7.93623 11.6926 7.92631
277 2 2.2208 10.7349 11.6557 10.8026
281 1 -1.1104 12.3683 10.041 12.3355
282 2 2.2208 10.8021 8.93453 8.12933
284 1 -1.1104 12.2627 10.2375 9.33966
50 2 2.2208 13.8101 -2.4612 5.05349
337 2 2.2208 13.5646 14.4554 5.12039
320 2 2.2208 8.20653 17.3582 8.02113
296 1 -1.1104 6.82264 18.5026 12.1696
368 2 2.2208 2.34727 17.2373 13.5487
316 2 2.2208 8.08695 19.9453 10.9579
310 2 2.2208 2.42505 14.5313 10.5488
295 2 2.2208 5.07001 14.5244 7.99435
309 2 2.2208 2.39611 19.879 10.5916
308 1 -1.1104 3.68903 15.7678 12.0169
307 1 -1.1104 0.85418 15.856 12.0158
304 1 -1.1104 3.91336 15.9186 9.27839
303 2 2.2208 2.33099 17.1222 7.682
301 1 -1.1104 3.69817 18.6093 9.20563
300 2 2.2208 5.28608 17.1267 10.7473
298 1 -1.1104 0.911879 18.5965 11.9214
293 2 2.2208 5.18894 20.0073 8.05156
292 1 -1.1104 0.984017 15.7717 9.11034
291 1 -1.1104 0.982106 18.5717 9.37849
286 1 -1.1104 3.87101 18.451 12.2188
289 1 -1.1104 6.72437 15.6376 9.48225
364 2 2.2208 10.831 8.82638 13.6634
323 1 -1.1104 12.1925 15.6222 9.45605
314 1 -1.1104 9.5678 15.8921 9.36783
329 1 -1.1104 12.1519 18.6249 12.2775
326 1 -1.1104 12.2515 15.6145 12.3329
331 2 2.2208 10.7816 17.2146 10.9493
317 2 2.2208 8.0615 14.2968 10.7275
327 1 -1.1104 12.1341 18.5538 9.63214
325 2 2.2208 10.9995 14.3168 8.0398
376 2 2.2208 7.96856 17.0295 13.6779
315 1 -1.1104 9.4093 15.7793 12.3789
333 2 2.2208 13.6524 14.2939 10.7437
371 2 2.2208 5.06698 14.2987 13.6055
165 2 2.2208 13.5424 17.1568 2.26562
352 2 2.2208 5.33666 3.10163 13.5831
200 2 2.2208 -0.344695 -2.28914 7.81239
135 2 2.2208 -0.384528 14.4463 2.25011
342 2 2.2208 -0.383545 11.7029 10.8294
334 2 2.2208 13.5974 3.09849 5.29203
311 2 2.2208 -0.46055 20.0767 7.84526
83 2 2.2208 -0.362426 11.759 5.19905
369 2 2.2208 5.12859 19.954 13.5099
355 2 2.2208 8.14197 0.412794 13.5929
362 2 2.2208 13.6701 11.546 13.5549
357 2 2.2208 10.9685 3.15785 13.5657
339 2 2.2208 13.4826 6.05909 7.78948
402 2 2.2208 13.6921 8.79028 -0.417525
341 2 2.2208 13.6534 8.94111 10.6222
366 2 2.2208 13.5935 6.00849 13.5383
105 2 2.2208 13.5626 5.88519 2.34873
25 2 2.2208 -0.381493 -2.35437 2.37869
313 2 2.2208 -0.31766 14.3144 7.90486
351 2 2.2208 -0.325366 14.3604 13.5477
389 2 2.2208 8.16836 3.14464 -0.318092
405 2 2.2208 2.45819 20.1625 -0.387457
398 2 2.2208 10.9088 6.10297 -0.375091
386 2 2.2208 -0.332314 0.403004 -0.403954
383 2 2.2208 2.35945 3.24169 -0.3224
395 2 2.2208 5.29504 11.5595 -0.32633
406 2 2.2208 5.15416 0.330755 16.463
407 1 -1.1104 1.05354 -3.81876 17.8518
411 1 -1.1104 0.878007 -3.4135 14.9456
419 1 -1.1104 1.04939 -1.04777 17.7591
421 2 2.2208 5.21308 -2.3628 19.2175
423 1 -1.1104 1.12075 -0.912533 14.8562
427 1 -1.1104 3.77278 -3.89905 17.7076
429 2 2.2208 2.4985 0.435739 19.1874
430 1 -1.1104 3.82784 -3.86602 15.0343
434 2 2.2208 2.4045 -2.53475 16.3626
436 1 -1.1104 3.7473 -0.994484 17.867
437 1 -1.1104 3.80556 -1.03509 15.0079
420 1 -1.1104 6.73228 -1.04725 17.8531
605 2 2.2208 13.6974 17.1114 24.958
668 2 2.2208 10.7448 -5.04034 22.0129
431 1 -1.1104 3.68162 -3.79705 20.4322
360 2 2.2208 5.29962 8.77897 13.6411
415 1 -1.1104 6.76432 -3.76881 14.8118
409 1 -1.1104 6.60571 -3.88256 17.9068
425 1 -1.1104 6.74669 -1.01305 15.0013
449 2 2.2208 10.9723 0.429066 16.3004
450 1 -1.1104 12.329 -3.82604 17.7112
452 1 -1.1104 12.1871 -4.01558 15.1007
456 1 -1.1104 12.4156 -0.98276 17.823
457 2 2.2208 10.8122 -2.4081 19.2375
459 1 -1.1104 12.181 -1.18053 14.859
461 1 -1.1104 9.46546 -3.83063 17.8838
463 2 2.2208 7.98897 0.450307 19.1588
464 1 -1.1104 9.52844 -3.76185 15.1323
468 2 2.2208 7.94364 -2.49123 16.4654
470 1 -1.1104 9.55941 -1.06034 17.6986
471 1 -1.1104 9.44152 -0.769622 15.023
472 1 -1.1104 9.2939 -0.948873 20.5878
479 2 2.2208 13.6204 17.1942 19.3036
460 1 -1.1104 12.1573 -0.981165 20.6028
443 2 2.2208 -0.497743 -2.26295 19.0349
382 2 2.2208 2.3769 -2.26124 27.5962
669 2 2.2208 8.02173 -5.10143 24.6482
408 1 -1.1104 0.962432 1.73171 17.7928
413 1 -1.1104 0.996348 1.84428 14.8987
422 2 2.2208 5.28575 3.20767 19.1876
428 1 -1.1104 3.68816 1.7106 17.8944
432 1 -1.1104 3.81279 1.7921 15.0249
435 2 2.2208 2.3946 3.12282 16.2482
482 2 2.2208 5.14743 6.04602 16.3662
484 1 -1.1104 0.852143 7.39948 17.8548
486 1 -1.1104 1.20933 7.14477 15.0177
490 1 -1.1104 1.04604 4.58363 17.8413
495 1 -1.1104 1.20027 4.56158 15.0872
503 1 -1.1104 3.94823 7.46379 17.8281
504 2 2.2208 2.48647 5.94674 19.3134
506 1 -1.1104 3.87105 7.31799 15.1353
509 1 -1.1104 3.85569 4.64062 17.7825
511 1 -1.1104 3.98612 4.60598 14.8133
488 1 -1.1104 6.68699 7.37851 14.9769
496 1 -1.1104 1.09574 4.66487 20.5995
487 1 -1.1104 1.22457 7.31147 20.6475
410 1 -1.1104 6.49677 1.76914 17.858
414 1 -1.1104 1.16434 1.88663 20.5203
485 1 -1.1104 6.54895 7.29339 17.6863
544 2 2.2208 -0.191493 3.18512 19.1425
489 1 -1.1104 6.73868 7.50414 20.5893
512 1 -1.1104 3.78372 4.49899 20.7944
507 1 -1.1104 3.91724 7.35421 20.5805
644 2 2.2208 -0.383518 3.25963 24.9894
373 2 2.2208 10.7995 14.3522 13.7873
417 1 -1.1104 6.65056 1.84563 15.0994
499 1 -1.1104 6.71306 4.55488 14.9287
492 1 -1.1104 6.5776 4.61982 17.9222
451 1 -1.1104 12.3112 1.79057 17.7749
454 1 -1.1104 12.2415 1.78959 14.9519
458 2 2.2208 10.9881 3.10313 19.1273
462 1 -1.1104 9.42975 1.7779 17.6038
466 1 -1.1104 9.46594 1.8501 14.8021
469 2 2.2208 8.04324 3.24258 16.3737
518 2 2.2208 10.8951 6.07995 16.5437
520 1 -1.1104 12.2841 7.46465 17.9639
521 1 -1.1104 12.33 7.46506 15.1543
523 1 -1.1104 12.2694 4.7115 18.041
526 1 -1.1104 12.2653 4.67545 15.189
530 1 -1.1104 9.26861 7.30171 18.0165
531 2 2.2208 8.07126 5.97971 19.3806
533 1 -1.1104 9.54304 7.3761 15.061
536 1 -1.1104 9.42522 4.67805 17.7701
538 1 -1.1104 9.52347 4.69672 15.0398
467 1 -1.1104 9.51377 1.57637 20.4919
643 2 2.2208 -0.350053 0.435075 22.0359
418 1 -1.1104 6.64468 1.94064 20.7334
522 1 -1.1104 12.1478 7.43236 20.7379
455 1 -1.1104 12.2731 1.83813 20.7351
534 1 -1.1104 9.39174 7.2717 20.8458
483 2 2.2208 5.07198 11.4381 16.6236
491 1 -1.1104 0.909671 10.1206 17.886
494 2 2.2208 5.28113 8.72822 19.2388
497 1 -1.1104 1.08407 10.0503 15.0765
505 2 2.2208 2.38288 11.5489 19.2783
508 2 2.2208 2.40811 8.66965 16.5614
510 1 -1.1104 3.77109 10.2622 18.0372
513 1 -1.1104 3.6779 9.9878 15.0084
546 1 -1.1104 1.14397 12.8837 17.7954
550 1 -1.1104 1.10787 12.9812 14.8581
566 1 -1.1104 3.891 13.0637 18.1312
569 1 -1.1104 3.7947 12.7925 15.1537
501 1 -1.1104 6.54772 10.2717 15.2346
554 1 -1.1104 6.41068 12.9782 15.0156
514 1 -1.1104 3.8249 10.2502 20.7019
498 1 -1.1104 0.862333 9.9813 20.7029
551 1 -1.1104 1.06236 12.9608 20.5315
570 1 -1.1104 4.04952 13.0079 20.7767
502 1 -1.1104 6.68322 10.4042 20.7075
442 2 2.2208 -0.250628 0.459381 16.2812
548 1 -1.1104 6.57297 12.81 17.8752
493 1 -1.1104 6.69741 10.0226 17.9882
519 2 2.2208 10.8411 11.6772 16.4725
524 1 -1.1104 12.2401 10.1924 17.9628
525 2 2.2208 10.719 8.81233 19.396
528 1 -1.1104 12.2935 10.2159 15.003
532 2 2.2208 7.9865 11.7522 19.3197
535 2 2.2208 8.04144 8.69108 16.6181
537 1 -1.1104 9.41523 10.0784 17.8158
540 1 -1.1104 9.44992 10.2887 15.098
582 1 -1.1104 12.2861 13.0221 17.6674
584 1 -1.1104 12.2568 12.8892 14.8773
593 1 -1.1104 9.37985 12.9444 17.7326
596 1 -1.1104 9.30527 13.0115 14.9367
600 2 2.2208 7.90562 14.3702 16.4935
541 1 -1.1104 9.43752 10.2619 20.5391
585 1 -1.1104 12.0122 13.0281 20.4792
597 1 -1.1104 9.51017 13.1274 20.6102
529 1 -1.1104 12.1674 10.2299 20.6241
667 2 2.2208 8.06309 17.1499 24.9504
573 2 2.2208 2.50102 14.3308 16.2622
560 2 2.2208 5.25684 14.469 19.4801
545 2 2.2208 5.2509 17.2362 16.4165
547 1 -1.1104 0.96605 18.5446 17.7741
552 1 -1.1104 0.870641 18.5165 14.8571
558 1 -1.1104 1.15759 15.7039 17.5943
561 2 2.2208 5.0117 20.1245 19.3562
562 1 -1.1104 0.958785 15.8033 14.8865
567 1 -1.1104 3.75753 18.9604 17.7179
568 2 2.2208 2.31528 17.2591 19.232
571 1 -1.1104 3.85462 18.6644 14.8865
574 2 2.2208 2.3354 20.0076 16.2981
575 1 -1.1104 3.74527 15.9704 17.8353
576 1 -1.1104 3.84153 15.8549 15.0197
564 1 -1.1104 6.59252 15.8311 14.9799
559 1 -1.1104 6.57151 15.6421 18.0171
577 1 -1.1104 3.7956 15.816 20.7385
556 1 -1.1104 6.66405 18.5216 15.1501
565 1 -1.1104 6.67267 15.8926 20.787
553 1 -1.1104 0.761772 18.5489 20.5665
549 1 -1.1104 6.39706 18.5192 17.8891
572 1 -1.1104 3.76667 18.631 20.6615
747 1 -1.1104 6.73018 15.9321 23.4727
589 2 2.2208 10.7532 14.4216 19.1507
581 2 2.2208 10.9358 17.0442 16.5537
583 1 -1.1104 12.2353 18.606 17.9559
586 1 -1.1104 12.145 18.5548 15.1758
588 1 -1.1104 12.4 15.7033 17.97
590 2 2.2208 10.8126 19.9364 19.1768
591 1 -1.1104 12.4048 15.7993 15.0639
594 1 -1.1104 9.36014 18.6577 17.9791
595 2 2.2208 8.00322 17.2869 19.3212
598 1 -1.1104 9.35112 18.5151 15.0457
601 2 2.2208 8.00179 19.8843 16.3737
602 1 -1.1104 9.38395 15.8159 17.8847
603 1 -1.1104 9.41864 15.7311 15.2946
587 1 -1.1104 12.1456 18.5219 20.6741
557 1 -1.1104 6.54747 18.7251 20.7792
599 1 -1.1104 9.5155 18.6533 20.5761
592 1 -1.1104 12.0887 15.8404 20.7153
604 1 -1.1104 9.39424 15.9689 20.7051
672 2 2.2208 13.5329 0.244126 24.8689
377 2 2.2208 8.03312 14.2973 27.72
379 2 2.2208 8.0446 19.8473 27.5995
542 2 2.2208 13.6677 5.98213 19.2835
424 1 -1.1104 1.18131 -0.829751 20.6486
438 1 -1.1104 3.87755 -1.18002 20.702
412 1 -1.1104 0.723909 -3.57686 20.5661
609 2 2.2208 5.25425 0.252858 22.0937
610 1 -1.1104 0.956217 -3.9326 23.1976
614 1 -1.1104 1.15446 -3.7283 26.1021
618 1 -1.1104 1.06127 -1.01029 23.4655
620 2 2.2208 5.22472 -2.33059 24.7152
622 1 -1.1104 0.891855 -1.12661 26.2732
624 1 -1.1104 3.95978 -3.74886 23.261
626 2 2.2208 2.37902 0.431633 24.8605
627 1 -1.1104 3.77935 -3.74568 25.8611
629 2 2.2208 2.36529 -2.45254 22.0094
631 1 -1.1104 3.80113 -1.03394 23.4786
632 1 -1.1104 3.91626 -1.09971 26.2987
616 1 -1.1104 6.53324 -3.70364 26.1877
623 1 -1.1104 6.71024 -0.899802 26.2733
416 1 -1.1104 6.47715 -3.61386 20.6198
365 2 2.2208 8.09606 11.4121 13.7304
517 2 2.2208 13.6458 11.5772 19.2795
636 1 -1.1104 12.1478 15.8048 23.5616
619 1 -1.1104 6.67058 -1.06982 23.3011
426 1 -1.1104 6.63653 -0.872202 20.7239
453 1 -1.1104 12.0756 -3.70747 20.7047
465 1 -1.1104 9.11663 -3.83184 20.6989
612 1 -1.1104 6.63736 -3.9042 23.3466
645 2 2.2208 10.7031 0.203304 21.9758
646 1 -1.1104 12.2413 -3.94246 23.3792
648 1 -1.1104 12.1876 -3.8238 26.1794
650 1 -1.1104 12.1151 -1.15678 23.518
651 2 2.2208 10.8163 -2.44238 24.8806
653 1 -1.1104 12.2864 -1.06547 26.2915
654 1 -1.1104 9.45959 -3.72762 23.4483
656 2 2.2208 8.0934 0.400461 24.741
657 1 -1.1104 9.34668 -3.82913 26.1305
659 2 2.2208 7.9001 -2.36219 22.0478
661 1 -1.1104 9.38274 -0.918766 23.4087
662 1 -1.1104 9.42531 -0.85767 26.2839
732 1 -1.1104 6.61554 15.7755 26.3648
433 1 -1.1104 3.83406 1.7417 20.8641
580 2 2.2208 13.4752 14.3427 22.0651
403 2 2.2208 2.31339 14.4202 27.7214
611 1 -1.1104 1.01781 1.70927 23.5392
615 1 -1.1104 1.04152 1.79874 26.4968
621 2 2.2208 5.15505 3.19541 24.7721
625 1 -1.1104 3.7999 1.90055 23.5481
628 1 -1.1104 3.79325 1.60787 26.2937
630 2 2.2208 2.45477 3.18509 22.2201
674 2 2.2208 5.2969 6.06681 22.0619
676 1 -1.1104 1.12927 7.35469 23.3888
678 1 -1.1104 0.943661 7.49521 26.2425
680 1 -1.1104 1.26638 4.58061 23.4426
685 1 -1.1104 0.90161 4.71451 26.1769
689 1 -1.1104 3.8601 7.48182 23.4292
690 2 2.2208 2.48664 6.01777 24.9339
694 1 -1.1104 3.86041 4.74081 23.5263
696 1 -1.1104 3.7186 4.37293 26.2304
692 1 -1.1104 3.92617 7.21861 26.2043
677 1 -1.1104 6.70184 7.27766 23.5792
679 1 -1.1104 6.54256 7.50418 26.2889
388 2 2.2208 8.07071 -2.42594 27.505
478 2 2.2208 13.5641 20.1024 16.5353
682 1 -1.1104 6.6247 4.66214 23.5734
617 1 -1.1104 6.6398 1.98756 26.3701
613 1 -1.1104 6.5823 1.62784 23.5928
500 1 -1.1104 6.61874 4.70023 20.8271
539 1 -1.1104 9.36296 4.47789 20.4968
687 1 -1.1104 6.40851 4.69833 26.2691
527 1 -1.1104 12.4942 4.65938 20.761
647 1 -1.1104 12.1879 1.73085 23.6595
649 1 -1.1104 12.2231 1.83834 26.3529
652 2 2.2208 10.8954 3.16618 24.9853
655 1 -1.1104 9.34178 1.8415 23.4999
658 1 -1.1104 9.50521 1.71319 26.2544
660 2 2.2208 8.04639 3.14226 22.0856
706 1 -1.1104 9.46126 4.52959 26.3539
708 1 -1.1104 9.46493 4.78043 23.4152
710 1 -1.1104 9.48099 7.31243 26.292
712 2 2.2208 8.0615 5.94097 24.9612
713 2 2.2208 10.9031 6.00271 22.1476
715 1 -1.1104 12.1213 7.4284 23.5572
716 1 -1.1104 12.3249 7.42185 26.1794
717 1 -1.1104 12.2278 4.56164 23.5678
720 1 -1.1104 12.2641 4.61539 26.4466
722 1 -1.1104 9.31644 7.46064 23.5939
387 2 2.2208 10.8998 0.349395 27.7069
394 2 2.2208 2.42318 8.8361 27.7162
555 1 -1.1104 6.75804 13.1765 20.763
741 1 -1.1104 0.950417 12.9 23.2106
675 2 2.2208 5.24028 11.5361 22.0634
681 1 -1.1104 0.99304 10.208 23.4608
684 2 2.2208 5.30914 8.7459 24.8216
686 1 -1.1104 1.08676 10.1927 26.2564
691 2 2.2208 2.37304 11.6561 24.7857
693 2 2.2208 2.4344 8.82005 22.0396
695 1 -1.1104 3.78344 10.2127 23.4928
697 1 -1.1104 4.01654 10.128 26.3416
746 1 -1.1104 3.71133 12.841 26.1472
731 1 -1.1104 3.94941 12.9725 23.3867
735 1 -1.1104 0.970108 12.9711 26.1283
683 1 -1.1104 6.55052 10.2394 23.4691
702 2 2.2208 -0.279023 8.78299 24.6952
543 2 2.2208 13.7147 8.98986 16.3985
730 1 -1.1104 6.56589 12.8951 26.4704
739 1 -1.1104 6.85115 13.1518 23.5798
688 1 -1.1104 6.73407 10.3179 26.4696
673 1 -1.1104 9.37626 12.9854 26.3083
664 1 -1.1104 9.47394 13.0196 23.5887
634 1 -1.1104 12.2273 13.0256 26.1985
608 1 -1.1104 12.1797 12.9896 23.4646
705 1 -1.1104 9.46432 10.109 26.3131
707 1 -1.1104 9.30133 10.1951 23.4261
709 2 2.2208 7.94025 8.80623 22.1249
711 2 2.2208 7.94588 11.6956 24.9754
714 2 2.2208 10.8237 11.6308 22.1022
718 1 -1.1104 12.3178 10.0547 23.4682
719 2 2.2208 10.9359 8.79243 24.8634
721 1 -1.1104 12.4086 10.1968 26.3229
736 1 -1.1104 6.51425 18.712 23.4337
699 2 2.2208 8.07247 14.5346 22.0414
447 2 2.2208 -0.42268 17.1563 16.4155
701 1 -1.1104 9.41865 15.7834 23.3989
563 1 -1.1104 0.784275 15.6219 20.5325
635 1 -1.1104 12.3343 18.5216 26.3706
670 1 -1.1104 6.65834 18.5037 26.3051
727 2 2.2208 2.35709 14.3703 21.9136
744 2 2.2208 2.38442 17.1898 24.7677
743 1 -1.1104 3.82961 18.4166 26.1412
742 2 2.2208 5.22456 17.3195 22.2519
740 1 -1.1104 0.996426 18.4875 23.4289
750 2 2.2208 2.30206 20.0047 22.0785
749 1 -1.1104 3.74768 15.7225 23.4801
748 1 -1.1104 0.946227 15.7375 23.4012
745 1 -1.1104 3.84213 15.6558 26.1634
729 1 -1.1104 3.77587 18.4863 23.4615
733 1 -1.1104 0.901833 18.6992 26.1957
734 1 -1.1104 0.865269 15.7594 26.2735
737 2 2.2208 5.36639 20.1143 24.8895
738 2 2.2208 5.1844 14.3249 24.8613
663 1 -1.1104 12.3848 15.8074 26.2124
638 2 2.2208 10.7537 14.2678 24.9519
400 2 2.2208 10.7167 11.3378 27.7419
665 1 -1.1104 9.40899 18.625 23.4385
641 2 2.2208 10.656 19.8001 24.7945
606 2 2.2208 13.439 19.9532 21.9808
633 1 -1.1104 12.16 18.5237 23.6164
607 2 2.2208 10.8205 17.0867 22.1837
700 2 2.2208 8.00647 19.9813 22.0696
378 2 2.2208 10.8193 17.1329 27.5986
704 1 -1.1104 9.602 15.9152 26.1466
698 1 -1.1104 9.37185 18.3594 26.3128
441 2 2.2208 2.31615 -5.19076 19.027
640 2 2.2208 2.47501 -5.25898 24.7233
448 2 2.2208 -0.477945 14.2748 19.098
404 2 2.2208 5.22588 17.1733 27.5482
385 2 2.2208 5.19942 -5.14728 27.5786
444 2 2.2208 -0.341333 6.00152 21.9299
381 2 2.2208 5.31227 0.471084 27.8071
396 2 2.2208 -0.355611 11.6741 27.4838
356 2 2.2208 10.7483 -2.4384 13.6404
372 2 2.2208 10.8866 19.9258 13.7617
399 2 2.2208 8.04404 8.81339 27.6448
391 2 2.2208 13.6048 -2.52163 27.6795
751 2 2.2208 5.34058 22.6957 5.19273
753 1 -1.1104 0.878433 24.3336 0.881193
754 1 -1.1104 0.959749 24.2655 3.77881
755 1 -1.1104 0.918228 21.4406 0.811249
757 2 2.2208 5.14886 25.7107 2.3841
758 1 -1.1104 0.981987 21.5755 3.64097
760 1 -1.1104 3.68912 24.2584 1.04498
761 2 2.2208 2.36087 22.8508 2.48406
763 1 -1.1104 3.90716 24.2171 3.70514
764 2 2.2208 2.45943 25.6234 5.02449
765 1 -1.1104 3.65704 21.4139 1.19058
767 1 -1.1104 3.89608 21.4051 3.7988
766 1 -1.1104 3.75977 27.1198 0.90052
768 1 -1.1104 3.83893 27.0966 3.6682
756 1 -1.1104 1.09709 27.1632 0.901909
759 1 -1.1104 0.89187 27.0288 3.6963
899 1 -1.1104 3.78145 21.2156 6.43053
898 1 -1.1104 3.79961 24.0643 6.42112
892 1 -1.1104 1.10714 24.2225 6.52355
895 1 -1.1104 0.88564 27.014 6.44416
772 1 -1.1104 6.67056 24.1755 0.88661
896 1 -1.1104 6.6281 21.405 6.72208
1093 2 2.2208 7.79141 28.4324 13.6679
894 1 -1.1104 0.978601 21.3849 6.37104
1071 2 2.2208 13.6227 25.4564 10.8446
1679 1 -1.1104 0.721414 46.7857 12.1548
893 1 -1.1104 6.66092 24.1631 6.53044
773 1 -1.1104 6.60374 23.9757 3.83154
897 1 -1.1104 6.60586 26.8861 6.85726
777 1 -1.1104 6.56249 26.8503 3.93115
775 1 -1.1104 6.64256 26.892 0.89888
774 1 -1.1104 6.63833 21.2289 0.826229
776 1 -1.1104 6.59471 21.0344 3.8403
778 2 2.2208 10.8197 22.9275 5.25605
780 1 -1.1104 12.2454 24.2377 0.908957
781 1 -1.1104 12.4896 24.1337 3.69592
782 1 -1.1104 12.0662 21.4968 0.827632
784 2 2.2208 10.8279 25.6023 2.36205
785 1 -1.1104 12.088 21.4294 3.80254
787 1 -1.1104 9.47524 24.1585 0.823537
788 2 2.2208 8.05357 22.766 2.29552
790 1 -1.1104 9.59854 24.162 3.65326
791 2 2.2208 7.94457 25.6392 5.28824
792 1 -1.1104 9.36887 21.28 0.899189
794 1 -1.1104 9.41803 21.4247 3.78792
783 1 -1.1104 12.196 27.1468 1.08394
786 1 -1.1104 12.3451 26.9013 3.79504
793 1 -1.1104 9.46565 26.9712 1.06124
795 1 -1.1104 9.34546 26.9621 3.97535
929 1 -1.1104 9.47167 21.6605 6.75955
925 1 -1.1104 12.407 24.3166 6.67694
930 1 -1.1104 9.39302 26.9925 6.75656
900 1 -1.1104 3.67508 27.1093 6.58535
752 2 2.2208 5.07856 28.4723 5.11551
762 2 2.2208 2.24901 28.4491 2.24633
800 1 -1.1104 0.811071 29.846 0.911372
803 1 -1.1104 0.806881 29.769 3.83021
806 1 -1.1104 1.09792 32.4486 0.892799
807 2 2.2208 5.1225 31.1348 2.2174
809 1 -1.1104 0.809589 32.4969 3.63334
811 1 -1.1104 3.65878 29.9076 0.827348
814 1 -1.1104 3.42848 29.8988 3.71386
816 2 2.2208 2.27224 31.2972 5.30142
818 1 -1.1104 3.79307 32.6558 0.835016
819 1 -1.1104 3.79431 32.5241 3.6677
957 1 -1.1104 3.78016 32.5754 6.5432
953 1 -1.1104 0.982063 32.6448 6.52201
955 1 -1.1104 3.7155 29.8488 6.60771
810 1 -1.1104 6.49065 32.6091 3.73858
1521 1 -1.1104 12.0515 46.8999 0.942111
1524 1 -1.1104 12.1171 46.6894 3.5957
927 1 -1.1104 11.9512 27.0013 6.43318
825 1 -1.1104 6.66221 32.5547 0.876223
954 1 -1.1104 6.49023 32.5008 6.7893
951 1 -1.1104 6.75943 29.6685 6.29381
823 1 -1.1104 6.43131 29.8924 0.765476
824 1 -1.1104 6.50446 29.8178 3.61989
779 2 2.2208 10.9298 28.4693 4.99305
789 2 2.2208 7.83284 28.3712 2.39258
827 1 -1.1104 12.123 29.8825 0.907056
829 1 -1.1104 12.3316 29.7861 3.68428
831 1 -1.1104 12.3311 32.6683 0.833828
832 2 2.2208 10.8097 31.2229 2.07716
834 1 -1.1104 12.2585 32.5626 3.67641
835 1 -1.1104 9.29888 29.8576 0.85998
838 1 -1.1104 9.50286 29.6151 3.60459
840 2 2.2208 8.0624 31.1907 5.19292
842 1 -1.1104 9.44779 32.7672 0.773198
843 1 -1.1104 9.36956 32.5067 3.90176
988 1 -1.1104 9.22911 32.6217 6.67111
983 1 -1.1104 12.2258 29.7498 6.55626
986 1 -1.1104 9.44361 29.8566 6.52126
1049 2 2.2208 7.85498 45.1512 7.68179
799 2 2.2208 5.19007 33.8668 5.27566
801 1 -1.1104 1.03561 35.1855 0.942581
804 1 -1.1104 0.860917 35.3593 3.87795