ITEM: TIMESTEP
90000
ITEM: NUMBER OF ATOMS
17760
ITEM: BOX BOUNDS pp pp pp
-4.2236654851118116e-01 2.7762366548511544e+01
-5.0007745986948446e+00 3.3308077459869509e+02
-4.0488821774231648e-01 2.7744888217742041e+01
ITEM: ATOMS id type q x y z
1 2 2.2208 5.16395 0.660025 5.07326
2 1 -1.1104 0.912451 -3.83276 0.705677
6 1 -1.1104 0.918035 -3.72326 3.61976
10 1 -1.1104 1.05373 -0.831785 1.09743
12 2 2.2208 5.21749 -2.18176 2.25824
14 1 -1.1104 0.871315 -0.797774 3.83368
16 1 -1.1104 3.76488 -3.7034 0.845389
18 2 2.2208 2.55701 0.420163 2.41048
19 1 -1.1104 3.77483 -3.64943 3.71741
21 2 2.2208 2.40809 -2.15925 5.22021
23 1 -1.1104 3.69407 -1.12605 0.985522
24 1 -1.1104 3.88206 -0.944192 3.79446
11 1 -1.1104 6.78528 -0.634915 0.963042
8 1 -1.1104 6.65908 -3.50116 3.618
4 1 -1.1104 6.52761 -3.7464 0.912611
349 2 2.2208 2.32981 0.564599 13.6716
172 1 -1.1104 3.77564 -3.71235 6.35849
170 1 -1.1104 0.861547 -0.802945 6.5478
166 1 -1.1104 0.872382 -3.5551 6.53539
168 1 -1.1104 6.5351 -3.73193 6.45137
352 2 2.2208 4.98877 3.22127 13.5739
15 1 -1.1104 6.65983 -0.86771 3.66044
49 2 2.2208 13.4085 0.613449 2.37476
31 2 2.2208 10.6733 0.625617 5.01799
32 1 -1.1104 12.0433 -3.61347 0.906404
34 1 -1.1104 12.0798 -3.78013 3.57337
36 1 -1.1104 12.3691 -0.810773 0.918991
37 2 2.2208 10.672 -2.35471 2.36617
39 1 -1.1104 12.0162 -0.820288 3.80347
40 1 -1.1104 9.17768 -3.6822 0.879665
42 2 2.2208 8.09515 0.641552 2.35645
43 1 -1.1104 9.18841 -3.65148 3.68806
45 2 2.2208 7.88511 -2.262 5.20674
47 1 -1.1104 9.63751 -0.791274 0.932284
48 1 -1.1104 9.28616 -0.893138 3.71698
205 1 -1.1104 12.1144 -3.81421 6.39073
317 2 2.2208 7.93828 14.6828 10.7562
345 2 2.2208 13.5391 20.1973 10.9508
341 2 2.2208 13.5247 9.22921 10.8298
207 1 -1.1104 11.9908 -0.778606 6.45362
355 2 2.2208 8.08999 0.503686 13.5608
30 2 2.2208 -0.368737 -4.92105 5.14865
380 2 2.2208 13.5626 17.5906 13.7001
3 1 -1.1104 0.918663 1.94149 0.945724
7 1 -1.1104 0.821183 2.04625 3.78989
13 2 2.2208 5.14983 3.32095 2.18118
17 1 -1.1104 3.83139 1.83722 0.99905
20 1 -1.1104 3.67233 1.99119 3.55711
22 2 2.2208 2.29731 3.54462 5.05706
54 2 2.2208 4.98887 6.23344 5.0939
56 1 -1.1104 0.889558 7.44155 0.814274
60 1 -1.1104 0.889849 4.60679 0.818504
67 1 -1.1104 0.736335 4.91948 3.7172
71 1 -1.1104 3.59036 7.71763 0.80485
72 2 2.2208 2.36027 6.05962 2.21633
76 1 -1.1104 3.55957 4.75561 0.921116
79 1 -1.1104 3.67816 4.88071 3.60893
74 1 -1.1104 3.7321 7.60526 3.73135
58 1 -1.1104 0.94367 7.71227 3.69536
63 1 -1.1104 6.44693 5.05386 1.1498
9 1 -1.1104 6.51064 1.94184 3.68965
5 1 -1.1104 6.48868 2.07666 0.83566
237 1 -1.1104 6.417 4.98167 6.71614
235 1 -1.1104 6.48138 7.57828 6.40313
238 1 -1.1104 3.52217 7.80527 6.52648
167 1 -1.1104 0.647085 1.77562 6.58255
234 1 -1.1104 0.916047 7.47989 6.70577
236 1 -1.1104 0.95645 4.58783 6.55947
333 2 2.2208 13.5558 14.6571 10.7625
57 1 -1.1104 6.32288 7.83217 0.736475
69 1 -1.1104 6.32417 4.69958 3.86981
59 1 -1.1104 6.57605 7.69331 3.71986
33 1 -1.1104 11.9642 2.04954 0.865479
35 1 -1.1104 12.0237 1.95548 3.7068
38 2 2.2208 10.6989 3.44395 2.31897
41 1 -1.1104 9.3176 2.29988 1.11369
44 1 -1.1104 9.16638 1.98275 3.91143
46 2 2.2208 7.91949 3.45399 5.24408
84 2 2.2208 10.5567 6.37489 5.15272
86 1 -1.1104 11.9772 7.58265 0.906841
87 1 -1.1104 12.1137 7.52695 3.66403
88 1 -1.1104 12.1455 4.91899 1.05037
92 1 -1.1104 12.0517 4.85149 3.78566
94 1 -1.1104 9.23507 7.82342 0.947489
95 2 2.2208 7.86384 6.2628 2.3585
97 1 -1.1104 9.47074 7.74329 3.92104
99 1 -1.1104 9.14469 4.96363 0.972395
102 1 -1.1104 9.18924 4.86016 3.78933
265 1 -1.1104 12.2111 7.8177 6.53622
267 1 -1.1104 9.25412 7.86451 6.70698
354 2 2.2208 13.4922 -5.06415 13.582
364 2 2.2208 10.8084 9.05729 13.6627
334 2 2.2208 13.473 3.58843 5.04119
360 2 2.2208 5.14363 8.84776 13.6682
318 1 -1.1104 9.48559 18.8966 9.49564
314 1 -1.1104 9.23688 16.2637 9.40714
55 2 2.2208 4.98454 11.9198 5.14796
61 1 -1.1104 0.71104 10.4039 1.20065
66 2 2.2208 5.03566 9.06778 2.25717
68 1 -1.1104 0.715543 10.6613 3.99347
73 2 2.2208 2.2732 12.0153 2.35018
75 2 2.2208 2.18225 9.10264 5.20453
77 1 -1.1104 3.58337 10.5842 0.902454
80 1 -1.1104 3.60653 10.4876 3.86924
107 1 -1.1104 0.967782 13.2894 0.996146
113 1 -1.1104 0.910618 13.4053 3.82073
123 1 -1.1104 3.76775 13.2562 0.937095
128 1 -1.1104 3.67753 13.2246 3.76075
78 1 -1.1104 3.58157 10.4704 6.80219
70 1 -1.1104 6.39747 10.3974 3.67216
64 1 -1.1104 6.46776 10.4914 1.00119
110 1 -1.1104 6.37314 13.1869 0.93042
62 1 -1.1104 0.815675 10.4541 6.76442
115 1 -1.1104 6.2898 13.3162 3.71959
108 1 -1.1104 0.751319 13.2562 6.71237
111 1 -1.1104 6.5015 13.4687 6.55764
324 2 2.2208 10.6915 20.1603 7.80735
85 2 2.2208 10.6557 11.9867 5.12021
89 1 -1.1104 12.0485 10.2422 0.795049
91 2 2.2208 10.6493 9.02144 2.34347
93 1 -1.1104 12.2128 10.3784 3.75516
96 2 2.2208 7.95727 11.9471 2.33966
98 2 2.2208 7.89921 9.11373 5.07414
100 1 -1.1104 9.36395 10.6404 0.951387
103 1 -1.1104 9.16916 10.3958 3.67047
142 1 -1.1104 12.1677 13.1448 0.981923
146 1 -1.1104 12.2205 13.3908 3.79405
153 1 -1.1104 9.22743 13.2772 0.903232
158 1 -1.1104 9.41468 13.1918 3.62248
104 2 2.2208 13.6958 11.8745 2.38685
65 1 -1.1104 6.41171 10.548 6.40069
368 2 2.2208 2.29687 17.6038 13.7095
101 1 -1.1104 9.35555 10.6187 6.5303
335 2 2.2208 13.454 9.10877 5.16877
331 2 2.2208 10.6573 17.556 10.7759
130 2 2.2208 2.19402 14.628 5.18982
119 2 2.2208 5.17225 14.5774 2.25007
106 2 2.2208 4.88012 17.5066 5.14046
109 1 -1.1104 1.11575 19.0141 0.900138
114 1 -1.1104 1.02205 19.0623 3.83704
116 1 -1.1104 1.0018 16.2157 0.932217
120 2 2.2208 5.01645 20.3164 2.30098
121 1 -1.1104 0.904233 16.2744 3.68545
125 1 -1.1104 3.84077 18.7506 0.712351
127 2 2.2208 2.37422 17.4871 2.27078
129 1 -1.1104 3.60463 18.798 3.64875
131 2 2.2208 2.37394 20.337 5.26447
132 1 -1.1104 3.49434 15.8723 0.938211
134 1 -1.1104 3.66798 15.9467 3.73081
139 1 -1.1104 6.31258 18.8824 3.77329
122 1 -1.1104 6.47814 16.2674 3.76702
140 1 -1.1104 6.53965 16.0539 0.820513
138 1 -1.1104 6.4785 19.0473 0.980979
112 1 -1.1104 6.66418 18.7703 6.6175
117 1 -1.1104 0.856169 16.3016 6.53946
126 1 -1.1104 3.79351 18.9806 6.50082
133 1 -1.1104 3.56595 16.0693 6.54583
316 2 2.2208 7.99782 20.4584 10.7426
165 2 2.2208 13.7294 17.2348 2.18885
337 2 2.2208 13.5657 14.6576 5.17307
160 2 2.2208 7.83894 14.8092 5.16926
150 2 2.2208 10.7624 14.6489 2.19869
141 2 2.2208 10.8416 17.4657 4.91946
144 1 -1.1104 12.1558 18.6165 1.05816
147 1 -1.1104 12.2157 19.2043 3.83764
148 1 -1.1104 12.3708 15.8232 0.98715
151 2 2.2208 10.7418 20.1962 2.29255
152 1 -1.1104 12.1376 16.2758 3.54273
155 1 -1.1104 9.36498 19.0132 0.712581
157 2 2.2208 7.83979 17.5303 2.16275
159 1 -1.1104 9.33781 18.7802 3.55375
161 2 2.2208 7.84807 20.1416 5.05256
162 1 -1.1104 9.40449 16.1806 0.880666
164 1 -1.1104 9.35364 16.0219 3.85178
163 1 -1.1104 9.45587 16.1462 6.4738
376 2 2.2208 7.92812 17.3885 13.6256
156 1 -1.1104 9.344 18.8197 6.47002
149 1 -1.1104 12.2028 16.0753 6.34679
145 1 -1.1104 12.2199 18.8098 6.65318
325 2 2.2208 10.7116 14.7855 7.88455
339 2 2.2208 13.616 6.36386 7.85083
171 1 -1.1104 6.57792 -0.882547 6.53898
174 1 -1.1104 3.70679 -0.935572 6.57386
175 2 2.2208 5.1433 0.492524 10.5787
176 1 -1.1104 0.755311 -3.81169 12.3679
180 1 -1.1104 1.10304 -3.57927 9.2932
184 1 -1.1104 1.04922 -0.935484 12.2362
186 2 2.2208 5.13244 -2.34269 7.93786
188 1 -1.1104 0.782479 -0.753318 9.36629
190 1 -1.1104 3.61785 -3.7542 12.0089
192 2 2.2208 2.35901 0.501205 7.98237
193 1 -1.1104 3.88508 -3.79261 9.27443
195 2 2.2208 2.3636 -2.129 10.7236
197 1 -1.1104 3.79389 -0.745484 12.1932
198 1 -1.1104 3.72211 -0.743223 9.34744
189 1 -1.1104 6.48794 -0.841453 9.24962
178 1 -1.1104 6.501 -3.72126 12.031
182 1 -1.1104 6.65358 -3.48217 9.07942
185 1 -1.1104 6.52782 -0.918776 12.1503
29 2 2.2208 5.13472 -4.98535 5.10519
369 2 2.2208 5.1644 20.202 13.6087
361 2 2.2208 2.38081 11.7207 13.5601
210 1 -1.1104 9.25064 -0.652688 6.45804
208 1 -1.1104 9.36855 -3.6247 6.43651
211 2 2.2208 10.7148 0.583951 10.7593
212 1 -1.1104 12.205 -3.47046 12.1187
214 1 -1.1104 11.9484 -3.71102 9.22754
216 1 -1.1104 12.0703 -0.878651 12.3268
217 2 2.2208 10.6459 -2.2578 7.75387
219 1 -1.1104 11.9692 -0.732616 9.35987
220 1 -1.1104 9.3796 -3.58586 12.2447
222 2 2.2208 7.86966 0.638682 7.90989
223 1 -1.1104 9.41248 -3.72943 9.16919
225 2 2.2208 7.88536 -2.30304 10.6499
227 1 -1.1104 9.35935 -0.637266 12.1363
228 1 -1.1104 9.28888 -0.630533 9.40328
230 2 2.2208 13.4029 -2.10841 10.6082
229 2 2.2208 13.5896 0.646982 7.85095
239 1 -1.1104 3.65472 4.88133 6.49725
173 1 -1.1104 3.66747 1.90912 6.43622
177 1 -1.1104 0.723101 1.97373 12.1953
181 1 -1.1104 0.82207 2.0254 9.39814
187 2 2.2208 5.07228 3.47463 8.03322
191 1 -1.1104 3.52246 1.98247 12.1763
194 1 -1.1104 3.77961 2.05177 9.29394
196 2 2.2208 2.25731 3.53811 10.8394
240 2 2.2208 5.19288 6.1215 10.8091
242 1 -1.1104 0.72016 7.64909 12.3027
244 1 -1.1104 0.855894 7.61693 9.55946
246 1 -1.1104 0.966805 4.77061 12.3809
251 1 -1.1104 0.901697 4.86314 9.44055
256 2 2.2208 2.26266 6.20646 7.96648
258 1 -1.1104 3.81797 7.62734 9.58511
260 1 -1.1104 3.86716 4.90162 12.3503
262 1 -1.1104 3.67593 4.69171 9.2927
255 1 -1.1104 3.6426 7.52036 12.2807
245 1 -1.1104 6.50737 7.62366 9.28892
169 1 -1.1104 6.56615 1.88917 6.55843
253 1 -1.1104 6.51137 4.96492 9.37893
183 1 -1.1104 6.82582 2.24198 9.21647
243 1 -1.1104 6.63484 7.62362 12.2892
248 1 -1.1104 6.71853 4.5982 12.1693
179 1 -1.1104 6.39426 1.83778 12.0392
206 1 -1.1104 12.2582 2.34222 6.62099
209 1 -1.1104 9.5554 2.11703 6.49716
356 2 2.2208 10.8067 -2.24688 13.6243
266 1 -1.1104 12.1903 4.92921 6.48052
269 1 -1.1104 9.48414 5.01504 6.66405
213 1 -1.1104 12.1183 2.03132 12.2258
215 1 -1.1104 12.0864 1.99375 9.22524
218 2 2.2208 10.8264 3.41213 8.00587
221 1 -1.1104 9.17826 2.10324 12.2551
224 1 -1.1104 9.57221 1.94197 9.47943
226 2 2.2208 8.12899 3.46695 10.7519
268 1 -1.1104 9.34904 4.81216 9.41913
271 1 -1.1104 9.45861 4.92995 12.177
273 1 -1.1104 9.34369 7.71256 9.50648
275 2 2.2208 7.89592 6.28189 8.06415
276 2 2.2208 10.8676 6.30208 10.7562
278 1 -1.1104 12.0082 7.73968 12.1462
279 1 -1.1104 12.3259 7.7123 9.28819
280 1 -1.1104 12.2084 4.8863 12.0411
283 1 -1.1104 12.0863 5.05744 9.22295
285 1 -1.1104 9.13275 7.86074 12.482
389 2 2.2208 7.91995 3.40402 -0.469571
124 1 -1.1104 3.56668 13.2895 6.69577
241 2 2.2208 5.10373 11.9255 10.7723
247 1 -1.1104 0.960563 10.4458 12.3504
250 2 2.2208 5.0131 9.00862 8.01475
252 1 -1.1104 0.791525 10.3339 9.62527
257 2 2.2208 2.2324 11.774 8.11409
259 2 2.2208 2.29506 9.03133 10.8788
261 1 -1.1104 3.89103 10.3684 12.2058
263 1 -1.1104 3.60311 10.403 9.53593
305 1 -1.1104 3.81208 13.5087 9.46354
299 1 -1.1104 1.05242 13.1795 12.1812
294 1 -1.1104 0.866876 13.261 9.48598
287 1 -1.1104 3.6825 13.1512 12.1447
297 1 -1.1104 6.52807 13.2655 12.115
254 1 -1.1104 6.54988 10.5294 9.36674
290 1 -1.1104 6.39182 13.2819 9.31384
249 1 -1.1104 6.48214 10.2566 12.3379
143 1 -1.1104 12.1721 13.3265 6.55396
340 2 2.2208 13.5079 11.8181 7.97291
154 1 -1.1104 9.24487 13.4296 6.52911
90 1 -1.1104 12.0802 10.6357 6.59499
330 1 -1.1104 12.1526 13.2864 12.0463
328 1 -1.1104 12.1165 13.2948 9.32784
264 1 -1.1104 9.30572 10.4674 9.51503
270 1 -1.1104 9.46721 10.5842 12.2205
272 2 2.2208 7.70769 9.05678 10.7801
274 2 2.2208 7.8587 11.9534 7.86621
277 2 2.2208 10.714 12.0196 10.7295
281 1 -1.1104 12.2017 10.4985 12.3077
282 2 2.2208 10.7298 9.16182 8.03326
284 1 -1.1104 12.1342 10.3988 9.44988
322 1 -1.1104 9.39014 13.4218 12.1389
319 1 -1.1104 9.17759 13.408 9.28978
326 1 -1.1104 11.9439 15.9772 11.9102
315 1 -1.1104 9.21867 16.1084 12.1805
320 2 2.2208 8.00277 17.4193 7.93818
289 1 -1.1104 6.43169 16.2363 9.36543
310 2 2.2208 2.31818 14.7899 10.8075
302 1 -1.1104 0.710048 19.0291 6.67209
118 1 -1.1104 6.53268 15.9513 6.58738
296 1 -1.1104 6.27379 19.0079 12.1607
288 1 -1.1104 6.52083 18.989 9.44352
291 1 -1.1104 0.957632 18.7045 9.51402
307 1 -1.1104 0.90119 15.8401 11.9903
309 2 2.2208 2.30996 20.2148 10.8818
306 1 -1.1104 6.42032 16.19 12.233
304 1 -1.1104 3.61051 16.2889 9.33004
303 2 2.2208 2.22345 17.5321 7.8746
301 1 -1.1104 3.6912 19.0767 9.10274
295 2 2.2208 4.98274 14.9321 7.9871
286 1 -1.1104 3.63663 18.7717 12.2186
292 1 -1.1104 0.659678 16.0621 9.17725
293 2 2.2208 5.12878 20.3161 7.90642
298 1 -1.1104 0.854588 18.9092 12.2222
300 2 2.2208 5.08631 17.5291 10.6435
308 1 -1.1104 3.65728 16.0711 12.2337
50 2 2.2208 13.3284 -2.28424 4.95288
371 2 2.2208 5.16479 14.6763 13.6325
348 2 2.2208 5.15654 -2.26082 13.6015
332 2 2.2208 13.6201 17.5135 7.92817
323 1 -1.1104 12.2491 16.1191 9.21979
327 1 -1.1104 12.2395 19.2073 9.48229
321 1 -1.1104 9.18882 19.0032 12.2791
329 1 -1.1104 12.2532 18.7432 12.1994
373 2 2.2208 10.7199 14.6572 13.6387
338 2 2.2208 13.3384 3.51047 10.6731
365 2 2.2208 7.94284 11.6369 13.5778
105 2 2.2208 13.5051 6.39685 2.2936
398 2 2.2208 10.6619 6.27795 -0.327117
362 2 2.2208 13.5869 11.8419 13.5552
406 2 2.2208 5.00637 0.396934 16.4308
407 1 -1.1104 0.887355 -3.72695 17.8369
411 1 -1.1104 0.821386 -3.73395 14.9696
419 1 -1.1104 0.71383 -0.937024 17.7686
421 2 2.2208 4.89451 -2.30163 19.321
423 1 -1.1104 0.763233 -0.978752 15.0317
427 1 -1.1104 3.52533 -3.80429 17.8401
429 2 2.2208 2.23629 0.55807 19.089
430 1 -1.1104 3.70067 -3.58256 14.7742
434 2 2.2208 2.14813 -2.37641 16.4205
436 1 -1.1104 3.65371 -0.85233 17.8397
437 1 -1.1104 3.68459 -0.853281 15.1135
415 1 -1.1104 6.64245 -3.72461 15.064
425 1 -1.1104 6.2584 -0.946484 15.0726
420 1 -1.1104 6.35613 -0.751355 17.9666
409 1 -1.1104 6.29469 -3.6247 17.8217
374 2 2.2208 13.711 14.563 27.6791
399 2 2.2208 7.94741 9.10869 27.7518
377 2 2.2208 8.03506 14.622 27.6175
449 2 2.2208 10.7974 0.730337 16.5412
450 1 -1.1104 12.056 -3.64099 17.9236
452 1 -1.1104 11.9551 -3.63845 15.1277
456 1 -1.1104 12.015 -0.673709 17.8361
457 2 2.2208 10.6887 -2.0924 19.1353
459 1 -1.1104 12.0253 -0.898822 15.1847
461 1 -1.1104 9.3813 -3.53858 17.8851
463 2 2.2208 7.80394 0.701964 19.2699
464 1 -1.1104 9.19922 -3.62105 15.119
468 2 2.2208 7.80514 -2.16822 16.5432
470 1 -1.1104 9.06131 -0.759181 17.7761
471 1 -1.1104 9.30806 -0.796839 14.9664
453 1 -1.1104 11.9166 -3.55337 20.6815
669 2 2.2208 7.88013 -4.97479 24.7697
578 2 2.2208 13.5362 0.742286 19.1819
607 2 2.2208 10.7595 17.5049 22.0572
400 2 2.2208 10.7988 11.901 27.646
579 2 2.2208 13.6158 3.50365 16.4419
700 2 2.2208 7.9072 20.1164 21.9502
408 1 -1.1104 0.862569 2.10677 17.9488
413 1 -1.1104 0.946802 1.75853 15.041
422 2 2.2208 4.97642 3.43703 19.1796
428 1 -1.1104 3.53581 1.84844 17.6717
432 1 -1.1104 3.8334 1.99223 15.0979
435 2 2.2208 2.20747 3.26582 16.5354
482 2 2.2208 5.06171 6.18887 16.3958
484 1 -1.1104 1.02874 7.589 17.8601
486 1 -1.1104 0.736344 7.59008 14.9752
490 1 -1.1104 0.657085 5.0714 17.8839
495 1 -1.1104 0.721811 4.59037 15.2486
503 1 -1.1104 3.84219 7.37966 17.8023
504 2 2.2208 2.20201 5.99419 19.2849
506 1 -1.1104 3.61509 7.49327 14.9772
509 1 -1.1104 3.4745 4.68681 17.7885
511 1 -1.1104 3.64882 4.73392 15.0502
485 1 -1.1104 6.6329 7.61001 17.6863
499 1 -1.1104 6.55711 4.81215 14.8609
487 1 -1.1104 0.687236 7.53753 20.5699
488 1 -1.1104 6.39537 7.72341 15.0554
410 1 -1.1104 6.28404 2.08201 17.8658
417 1 -1.1104 6.59385 1.95359 15.0544
492 1 -1.1104 6.47071 4.86489 17.8819
605 2 2.2208 13.6269 17.6665 24.9147
507 1 -1.1104 3.62118 7.42661 20.6306
500 1 -1.1104 6.48384 4.8725 20.6685
667 2 2.2208 7.94562 17.543 24.9758
451 1 -1.1104 12.2734 2.04015 18.0261
454 1 -1.1104 11.9838 2.05652 15.0226
458 2 2.2208 10.6627 3.60728 19.1359
462 1 -1.1104 9.4527 2.19955 17.6778
466 1 -1.1104 9.32256 1.97183 15.0226
469 2 2.2208 7.78188 3.45973 16.4382
518 2 2.2208 10.5307 6.2133 16.4649
520 1 -1.1104 12.2906 7.82763 17.8934
521 1 -1.1104 11.9284 7.40046 14.991
523 1 -1.1104 12.1015 5.13762 17.8305
526 1 -1.1104 12.0649 4.74165 14.965
530 1 -1.1104 9.4052 7.75802 17.9013
531 2 2.2208 7.96262 6.38282 19.2499
533 1 -1.1104 9.19224 7.47328 15.2501
536 1 -1.1104 9.23948 4.9941 17.6878
538 1 -1.1104 9.32148 4.67466 14.901
542 2 2.2208 13.5841 6.3358 19.1975
635 1 -1.1104 12.3002 19.0236 26.4097
665 1 -1.1104 9.20038 18.8286 23.4872
467 1 -1.1104 9.26516 2.17433 20.5639
480 2 2.2208 13.5971 14.7017 16.4627
404 2 2.2208 5.05937 17.3546 27.594
483 2 2.2208 5.19871 11.7349 16.337
491 1 -1.1104 0.831971 10.4122 17.9244
494 2 2.2208 5.13773 8.98538 19.2411
497 1 -1.1104 1.01845 10.3072 14.9339
505 2 2.2208 2.22983 11.8084 19.1921
508 2 2.2208 2.24376 8.88392 16.5058
510 1 -1.1104 3.62153 10.1995 17.8299
513 1 -1.1104 3.77887 10.2531 15.0987
546 1 -1.1104 0.893594 13.2232 17.8768
550 1 -1.1104 0.968167 13.1719 14.8757
566 1 -1.1104 3.82194 12.9448 17.8589
569 1 -1.1104 3.5865 13.1209 14.9651
554 1 -1.1104 6.45062 13.0744 14.9001
548 1 -1.1104 6.39947 13.0857 17.7493
501 1 -1.1104 6.68181 10.3674 15.0185
493 1 -1.1104 6.58257 10.2944 17.8803
551 1 -1.1104 0.775636 13.2711 20.6721
555 1 -1.1104 6.45272 13.2413 20.5819
636 1 -1.1104 12.1457 16.0449 23.5058
403 2 2.2208 2.30253 14.4145 27.5638
519 2 2.2208 10.6974 11.8213 16.4049
524 1 -1.1104 12.0657 10.4559 17.8003
525 2 2.2208 10.8644 9.0849 19.2816
528 1 -1.1104 12.4011 10.4979 14.9715
532 2 2.2208 7.80576 11.7797 19.2055
535 2 2.2208 7.98636 8.97967 16.3148
537 1 -1.1104 9.10997 10.3957 17.7028
540 1 -1.1104 9.36196 10.4081 14.8909
582 1 -1.1104 12.0702 13.1459 17.8157
584 1 -1.1104 12.002 13.1282 15.0055
593 1 -1.1104 9.29918 13.0824 17.9039
596 1 -1.1104 9.13142 13.2224 15.0533
668 2 2.2208 10.3996 -4.97839 22.0128
529 1 -1.1104 12.1828 10.5675 20.6419
541 1 -1.1104 9.40955 10.3392 20.6019
585 1 -1.1104 12.0509 13.1345 20.5752
479 2 2.2208 13.5783 17.4117 19.2753
573 2 2.2208 2.40852 14.4881 16.3642
560 2 2.2208 4.97225 14.4278 19.2822
545 2 2.2208 5.11126 17.3994 16.439
547 1 -1.1104 1.02929 18.9199 17.7251
552 1 -1.1104 1.03566 18.8719 15.046
558 1 -1.1104 0.777803 16.0787 17.8678
561 2 2.2208 5.16746 20.3791 19.0719
562 1 -1.1104 0.796023 16.0615 14.9307
567 1 -1.1104 4.01315 18.9379 17.8252
568 2 2.2208 2.26538 17.4702 19.1369
571 1 -1.1104 3.71802 18.7929 15.1409
574 2 2.2208 2.33108 20.274 16.4863
575 1 -1.1104 3.56139 16.0284 17.8821
576 1 -1.1104 3.64306 16.1063 14.991
577 1 -1.1104 3.67548 15.815 20.5826
559 1 -1.1104 6.20693 15.9859 17.9992
564 1 -1.1104 6.54577 15.886 15.065
549 1 -1.1104 6.73333 18.6792 17.6792
556 1 -1.1104 6.70766 18.8838 15.004
599 1 -1.1104 9.39623 18.6864 20.6415
553 1 -1.1104 0.792359 19.0589 20.5158
563 1 -1.1104 0.761588 16.1671 20.6199
517 2 2.2208 13.5851 11.8745 19.2197
589 2 2.2208 10.7794 14.5772 19.1887
600 2 2.2208 7.92994 14.5305 16.4054
581 2 2.2208 10.7539 17.3644 16.3842
583 1 -1.1104 12.3778 18.8697 17.8428
586 1 -1.1104 12.233 18.7782 15.0722
588 1 -1.1104 12.0705 15.9215 17.8212
590 2 2.2208 10.7187 20.1507 19.0513
591 1 -1.1104 12.2551 15.969 14.9909
594 1 -1.1104 9.37994 18.8122 17.7615
595 2 2.2208 7.91278 17.254 19.2012
598 1 -1.1104 9.48022 18.6769 15.078
601 2 2.2208 8.11853 20.2104 16.2532
602 1 -1.1104 9.23829 15.9053 17.5891
603 1 -1.1104 9.36574 15.9769 14.8961
604 1 -1.1104 9.28337 15.7944 20.5828
402 2 2.2208 13.5839 9.07516 27.6025
565 1 -1.1104 6.54029 15.8776 20.8126
592 1 -1.1104 12.1716 16.198 20.7529
633 1 -1.1104 12.1623 18.887 23.3963
728 2 2.2208 13.6057 6.28567 24.8452
424 1 -1.1104 0.920802 -1.00631 20.6849
431 1 -1.1104 3.48542 -3.68509 20.5324
438 1 -1.1104 3.62434 -0.878737 20.8331
412 1 -1.1104 0.816872 -3.64279 20.7071
609 2 2.2208 4.97991 0.684502 22.0344
610 1 -1.1104 0.910651 -3.89867 23.3472
614 1 -1.1104 0.915597 -3.88249 26.0479
618 1 -1.1104 0.69418 -1.07206 23.3049
620 2 2.2208 5.19599 -2.26399 24.8155
622 1 -1.1104 0.879065 -1.01858 26.2071
624 1 -1.1104 3.65023 -3.705 23.5239
626 2 2.2208 2.10641 0.477778 24.8035
627 1 -1.1104 3.73909 -3.67836 26.3305
629 2 2.2208 2.2218 -2.45768 22.0683
631 1 -1.1104 3.59178 -0.973568 23.5424
632 1 -1.1104 3.69985 -0.763255 26.2647
426 1 -1.1104 6.31782 -0.893691 20.7427
416 1 -1.1104 6.21043 -3.75525 20.6492
616 1 -1.1104 6.52316 -3.76543 26.2836
623 1 -1.1104 6.59218 -0.754485 26.2109
619 1 -1.1104 6.36163 -0.678291 23.4003
612 1 -1.1104 6.5673 -3.3669 23.6217
672 2 2.2208 13.629 0.706066 24.6924
405 2 2.2208 2.38395 20.1331 27.4343
460 1 -1.1104 12.0547 -0.587855 20.6932
465 1 -1.1104 9.1035 -3.48663 20.749
472 1 -1.1104 9.23462 -0.51837 20.6394
645 2 2.2208 10.6357 0.771035 22.0573
646 1 -1.1104 12.2244 -3.44528 23.3963
648 1 -1.1104 12.2367 -3.71239 26.1637
650 1 -1.1104 12.2124 -0.755592 23.5428
651 2 2.2208 10.7792 -2.11562 24.9069
653 1 -1.1104 12.2701 -0.870321 26.2979
654 1 -1.1104 9.38776 -3.57322 23.4727
656 2 2.2208 7.82526 0.661816 24.8327
657 1 -1.1104 9.36924 -3.52736 26.2692
659 2 2.2208 7.78391 -2.1307 22.1268
661 1 -1.1104 9.19593 -0.75182 23.5775
662 1 -1.1104 9.34591 -0.839161 26.3202
587 1 -1.1104 12.2212 18.8481 20.6731
638 2 2.2208 10.817 14.6419 24.8367
704 1 -1.1104 9.49948 16.1924 26.2574
433 1 -1.1104 3.5923 2.0446 20.4845
418 1 -1.1104 6.41973 1.9219 20.7345
414 1 -1.1104 0.833909 1.86491 20.5645
496 1 -1.1104 0.86545 4.74438 20.7191
512 1 -1.1104 3.70154 4.7154 20.7841
611 1 -1.1104 0.820032 1.86117 23.4839
615 1 -1.1104 0.754258 1.79368 26.1893
621 2 2.2208 5.01332 3.31521 24.8289
625 1 -1.1104 3.60186 1.89954 23.3877
628 1 -1.1104 3.48183 2.05727 26.1662
630 2 2.2208 2.19305 3.35989 22.1258
674 2 2.2208 5.04385 6.187 22.0234
676 1 -1.1104 0.603573 7.53562 23.6726
678 1 -1.1104 0.642216 7.61365 26.2768
680 1 -1.1104 0.81836 4.69797 23.3555
685 1 -1.1104 0.969418 4.86053 26.2682
689 1 -1.1104 3.47228 7.54851 23.3319
690 2 2.2208 2.17586 6.26772 24.8201
694 1 -1.1104 3.79131 4.54388 23.4736
696 1 -1.1104 3.74615 4.76296 26.2043
692 1 -1.1104 3.48563 7.62869 26.1872
687 1 -1.1104 6.41922 4.83906 26.2413
617 1 -1.1104 6.43819 2.03127 26.301
489 1 -1.1104 6.68614 7.57037 20.637
613 1 -1.1104 6.57497 2.15427 23.4983
677 1 -1.1104 6.27389 7.66987 23.3774
682 1 -1.1104 6.73389 4.94088 23.3143
527 1 -1.1104 12.0566 4.75646 20.7202
679 1 -1.1104 6.43281 7.54567 26.1947
522 1 -1.1104 12.325 7.62566 20.5829
455 1 -1.1104 11.9954 2.12549 20.7158
534 1 -1.1104 9.37018 7.7178 20.7178
539 1 -1.1104 9.28952 4.9186 20.3933
647 1 -1.1104 12.1998 2.09906 23.4173
649 1 -1.1104 12.1047 2.01392 26.3087
652 2 2.2208 10.7385 3.51846 24.8608
655 1 -1.1104 9.37177 2.23356 23.3863
658 1 -1.1104 9.24246 1.9525 26.1233
660 2 2.2208 7.92577 3.58113 21.9511
706 1 -1.1104 9.3962 4.96896 25.9341
708 1 -1.1104 9.45907 4.97779 23.2659
710 1 -1.1104 9.26637 7.50905 26.4249
712 2 2.2208 7.9015 6.24286 24.9026
713 2 2.2208 10.8476 6.30824 22.1269
715 1 -1.1104 11.9966 7.59693 23.312
716 1 -1.1104 12.3135 7.75525 26.0301
717 1 -1.1104 12.1986 4.90476 23.7162
720 1 -1.1104 12.1107 4.97138 26.4222
722 1 -1.1104 9.1275 7.83314 23.5596
446 2 2.2208 13.509 3.47166 22.1018
392 2 2.2208 13.5144 3.55671 27.6716
498 1 -1.1104 0.783061 10.4893 20.5907
514 1 -1.1104 3.81499 10.2742 20.5612
570 1 -1.1104 3.63549 12.953 20.7002
675 2 2.2208 5.11528 11.7836 21.9918
681 1 -1.1104 0.80716 10.2903 23.4555
684 2 2.2208 5.14496 8.98526 24.8715
686 1 -1.1104 0.888491 10.3828 26.2628
691 2 2.2208 2.46206 11.5848 24.8911
693 2 2.2208 2.21108 9.03124 21.9313
695 1 -1.1104 3.69847 10.2418 23.2519
697 1 -1.1104 3.6529 10.1818 26.2737
741 1 -1.1104 1.00136 13.0807 23.4689
746 1 -1.1104 3.67198 13.2347 26.2562
731 1 -1.1104 3.67448 13.0415 23.4608
735 1 -1.1104 0.93929 13.0365 26.2337
739 1 -1.1104 6.3748 13.2806 23.4475
683 1 -1.1104 6.39159 10.5632 23.3691
502 1 -1.1104 6.56408 10.4149 20.6156
730 1 -1.1104 6.57368 13.136 26.2092
688 1 -1.1104 6.54237 10.3681 26.2361
671 2 2.2208 13.4598 -2.05034 21.9732
726 2 2.2208 13.5807 11.8897 24.786
597 1 -1.1104 9.23645 13.1497 20.5892
445 2 2.2208 13.3704 8.95747 22.0615
705 1 -1.1104 9.39189 10.3631 26.3214
707 1 -1.1104 9.29244 10.5377 23.5461
709 2 2.2208 7.80598 9.07435 22.0089
711 2 2.2208 8.07245 11.8645 24.8394
714 2 2.2208 10.7314 11.8613 21.9993
718 1 -1.1104 12.176 10.4459 23.5386
719 2 2.2208 10.5713 9.12377 24.8936
721 1 -1.1104 12.244 10.6217 26.2517
608 1 -1.1104 12.1221 13.1642 23.3972
664 1 -1.1104 9.25619 13.2084 23.4037
634 1 -1.1104 12.3789 13.5538 26.1909
673 1 -1.1104 9.52411 13.4062 26.3143
381 2 2.2208 5.03138 0.546929 27.5682
666 2 2.2208 13.4792 -5.00714 24.6953
557 1 -1.1104 6.69845 18.7308 20.5318
701 1 -1.1104 9.33299 16.035 23.46
732 1 -1.1104 6.74133 15.9375 26.2027
572 1 -1.1104 3.67545 18.6726 20.4402
738 2 2.2208 5.12734 14.5243 24.7701
727 2 2.2208 2.30816 14.5592 22.0742
737 2 2.2208 5.05542 20.2334 24.7596
744 2 2.2208 2.36511 17.3778 24.6671
743 1 -1.1104 3.65448 18.8219 26.0274
742 2 2.2208 5.23835 17.3746 22.055
740 1 -1.1104 0.766635 18.7869 23.2143
750 2 2.2208 2.25869 20.3933 21.8364
749 1 -1.1104 3.76351 16.0644 23.4685
748 1 -1.1104 0.910827 15.9502 23.3683
745 1 -1.1104 3.58938 15.9676 26.2848
729 1 -1.1104 3.70968 18.8078 23.2503
733 1 -1.1104 0.955648 18.7206 26.0269
734 1 -1.1104 0.736794 15.8415 26.4446
670 1 -1.1104 6.53114 18.7643 26.2969
747 1 -1.1104 6.61811 16.1595 23.7597
736 1 -1.1104 6.37374 18.9112 23.4758
379 2 2.2208 7.88154 20.4348 27.6853
663 1 -1.1104 12.2297 16.1854 26.4886
699 2 2.2208 7.83389 14.5933 22.0868
606 2 2.2208 13.66 20.3443 21.9366
698 1 -1.1104 9.36657 19.031 26.2508
641 2 2.2208 10.7057 20.3605 24.7319
543 2 2.2208 13.585 9.13827 16.4402
387 2 2.2208 10.7556 0.554177 27.5727
395 2 2.2208 4.93364 11.8903 27.6875
378 2 2.2208 10.7699 17.507 27.7255
477 2 2.2208 13.3609 -2.16549 16.5432
474 2 2.2208 10.6915 -5.04233 16.3024
383 2 2.2208 2.0402 3.2461 27.6516
388 2 2.2208 8.01743 -2.14963 27.6256
580 2 2.2208 13.5208 14.729 22.1015
394 2 2.2208 2.2133 8.90418 27.6701
366 2 2.2208 13.4444 6.20393 13.6522
382 2 2.2208 2.33878 -2.49377 27.5581
401 2 2.2208 -0.445168 17.3305 27.6271
393 2 2.2208 4.91953 6.24834 27.5622
442 2 2.2208 -0.5814 0.418752 16.4273
372 2 2.2208 10.8848 20.2542 13.6325
357 2 2.2208 10.8055 3.51837 13.6666
370 2 2.2208 13.3837 0.57239 13.6972
363 2 2.2208 8.08716 6.17304 13.6359
359 2 2.2208 2.23223 6.30026 13.6667
391 2 2.2208 13.6185 -2.16 27.6062
751 2 2.2208 5.1712 22.966 5.05805
753 1 -1.1104 0.884079 24.525 0.804845
754 1 -1.1104 0.869956 24.4983 3.44591
755 1 -1.1104 1.13348 21.5911 0.717795
757 2 2.2208 5.18032 25.9107 2.30905
758 1 -1.1104 1.13474 21.8105 3.67701
760 1 -1.1104 3.58033 24.4923 0.821163
761 2 2.2208 2.3325 23.1349 2.18279
763 1 -1.1104 3.83033 24.3604 3.6036
764 2 2.2208 2.50385 25.8947 4.90392
765 1 -1.1104 3.817 21.5887 0.945008
767 1 -1.1104 3.76427 21.7141 3.79485
774 1 -1.1104 6.50968 21.8814 0.892367
773 1 -1.1104 6.46536 24.6788 3.65917
897 1 -1.1104 6.56489 27.1883 6.69632
775 1 -1.1104 6.61316 27.3925 1.03418
895 1 -1.1104 1.18936 27.4959 6.41257
893 1 -1.1104 6.77356 24.2779 6.38569
892 1 -1.1104 1.05222 24.5807 6.27204
1051 1 -1.1104 9.36128 41.5115 12.0624
772 1 -1.1104 6.55658 24.5614 0.759663
896 1 -1.1104 6.63547 21.568 6.67394
777 1 -1.1104 6.63437 27.3454 3.9511
776 1 -1.1104 6.47711 21.6316 3.80106
778 2 2.2208 10.9295 23.0244 5.30484
780 1 -1.1104 12.2284 24.3632 0.810311
781 1 -1.1104 12.1573 24.3379 3.83279
782 1 -1.1104 12.1826 21.5225 0.891273
784 2 2.2208 10.6014 25.8018 2.39386
785 1 -1.1104 12.2882 21.807 3.79831
787 1 -1.1104 9.31546 24.6114 1.05199
788 2 2.2208 7.81418 23.1742 2.3727
790 1 -1.1104 9.34492 24.3566 3.88212
791 2 2.2208 8.0848 25.9355 5.23188
792 1 -1.1104 9.2865 21.9324 0.950764
794 1 -1.1104 9.25929 21.5172 3.7074
786 1 -1.1104 12.0187 27.1871 3.78401
793 1 -1.1104 9.39186 27.4334 0.899309
795 1 -1.1104 9.3273 27.2944 3.80775
783 1 -1.1104 12.1193 27.2032 0.952468
928 1 -1.1104 9.43636 24.41 6.76733
1097 2 2.2208 2.3933 34.3571 13.6607
1055 1 -1.1104 12.3691 43.9607 12.5098
1129 2 2.2208 2.34128 37.1368 -0.436307
926 1 -1.1104 12.2387 21.6223 6.7622
930 1 -1.1104 9.35974 27.1551 6.66852
929 1 -1.1104 9.45143 21.548 6.43084
768 1 -1.1104 3.8102 27.2987 3.66919
756 1 -1.1104 0.958338 27.2429 0.915278
759 1 -1.1104 1.04368 27.2837 3.79849
766 1 -1.1104 3.85803 27.3151 0.779663
752 2 2.2208 5.19763 28.722 5.16388
762 2 2.2208 2.28281 28.7536 2.37356
800 1 -1.1104 1.06731 30.1477 1.00976
803 1 -1.1104 0.870027 30.4154 4.09826
806 1 -1.1104 0.977643 32.9684 1.07165
807 2 2.2208 5.08727 31.5185 2.29807
809 1 -1.1104 1.00828 33.1185 3.92218
811 1 -1.1104 3.71823 30.3458 1.04875
814 1 -1.1104 3.69071 30.2079 3.72505
816 2 2.2208 2.40985 31.6316 5.34545
818 1 -1.1104 3.69645 32.9401 1.09029
819 1 -1.1104 3.89751 32.9843 3.76941
825 1 -1.1104 6.56882 32.8737 0.847394
810 1 -1.1104 6.58555 32.9947 3.73413
955 1 -1.1104 3.75484 30.0551 6.6027
949 1 -1.1104 0.777692 30.0076 6.913
823 1 -1.1104 6.68433 30.15 0.90689
824 1 -1.1104 6.56042 30.118 3.86667
957 1 -1.1104 3.92979 32.9338 6.52232
953 1 -1.1104 1.09329 32.986 6.73284
954 1 -1.1104 6.5923 32.9347 6.7169
951 1 -1.1104 6.60296 30.1297 6.50121
1090 2 2.2208 2.35568 23.1 13.6653
1079 2 2.2208 13.6281 31.5072 10.9408
779 2 2.2208 10.7591 28.7081 5.21178
789 2 2.2208 8.0484 28.6446 2.54687
827 1 -1.1104 12.2698 30.2501 0.958471
829 1 -1.1104 12.1815 30.0128 3.67248
831 1 -1.1104 12.2908 33.1109 0.822598
832 2 2.2208 10.7339 31.384 2.38321
834 1 -1.1104 12.1491 32.7312 3.69238
835 1 -1.1104 9.42056 30.0919 0.953549
838 1 -1.1104 9.50998 30.1125 3.8998
840 2 2.2208 7.99262 31.6152 5.21174
842 1 -1.1104 9.49187 32.9263 0.993604
843 1 -1.1104 9.24222 32.7645 3.62929
988 1 -1.1104 9.45034 32.7363 6.57378
1094 2 2.2208 7.9912 23.0291 13.596
1085 1 -1.1104 6.31662 46.9023 9.24019
1086 1 -1.1104 12.4618 46.8589 6.34374
813 2 2.2208 2.33796 34.3806 2.3404
799 2 2.2208 5.25018 34.3542 5.12434
801 1 -1.1104 1.21756 35.775 0.925635
804 1 -1.1104 0.924997 35.871 3.715
808 2 2.2208 5.17747 37.0455 2.22072
812 1 -1.1104 3.94338 35.8094 0.645095
815 1 -1.1104 3.55964 35.7683 3.65121
817 2 2.2208 2.26074 37.1517 5.11746
856 1 -1.1104 0.985737 38.6517 3.63292
845 2 2.2208 5.30129 39.8377 5.09562
851 1 -1.1104 0.775708 38.5758 0.909036
861 2 2.2208 2.43563 40.0998 2.38964
865 1 -1.1104 3.77259 38.675 0.947178
867 1 -1.1104 3.65422 38.4874 3.74685
1029 1 -1.1104 3.65911 38.468 6.50163
858 1 -1.1104 6.39902 38.6772 3.39789
853 1 -1.1104 6.47171 38.5381 0.680438