ITEM: TIMESTEP
80000
ITEM: NUMBER OF ATOMS
17760
ITEM: BOX BOUNDS pp pp pp
-4.2090822726863381e-01 2.7760908227269280e+01
-4.9282257665400397e+00 3.3300822576653741e+02
-4.2004958096334005e-01 2.7760049580963020e+01
ITEM: ATOMS id type q x y z
1 2 2.2208 5.25653 0.953244 5.14388
2 1 -1.1104 1.16496 -3.61456 0.868935
6 1 -1.1104 0.986049 -3.45854 3.65357
10 1 -1.1104 0.95949 -0.662531 0.782293
12 2 2.2208 5.2137 -2.07027 2.24823
14 1 -1.1104 1.07039 -0.698696 3.72531
16 1 -1.1104 3.83854 -3.577 0.900087
18 2 2.2208 2.48457 0.682467 2.35631
19 1 -1.1104 3.60141 -3.47649 3.68653
21 2 2.2208 2.41708 -2.1202 5.06613
23 1 -1.1104 3.6604 -0.688258 0.869108
24 1 -1.1104 3.92072 -0.681362 3.72601
4 1 -1.1104 6.53287 -3.50751 0.979263
170 1 -1.1104 1.02082 -0.699474 6.50992
166 1 -1.1104 1.02735 -3.56485 6.41601
174 1 -1.1104 3.78528 -0.556479 6.4614
8 1 -1.1104 6.30949 -3.51935 3.7616
11 1 -1.1104 6.43979 -0.706063 0.749327
172 1 -1.1104 3.74726 -3.43225 6.58322
29 2 2.2208 5.10443 -4.89681 5.12612
3 1 -1.1104 0.857902 2.03951 0.830488
7 1 -1.1104 0.915793 2.04342 3.50097
13 2 2.2208 5.06721 3.43985 2.37494
17 1 -1.1104 3.94851 2.11499 0.839765
20 1 -1.1104 3.7376 2.07685 3.75158
22 2 2.2208 2.28431 3.42106 5.20804
167 1 -1.1104 0.887994 2.06635 6.5816
9 1 -1.1104 6.50689 2.19396 3.58589
169 1 -1.1104 6.53301 2.27909 6.34618
25 2 2.2208 -0.285458 -2.03044 2.10431
26 2 2.2208 -0.359001 0.541384 4.97821
168 1 -1.1104 6.63735 -3.4789 6.52813
15 1 -1.1104 6.67782 -0.526486 3.42537
53 2 2.2208 13.4571 -4.86967 2.34682
31 2 2.2208 10.9865 0.726713 5.2261
32 1 -1.1104 12.0225 -3.33024 0.86867
34 1 -1.1104 11.8155 -3.61347 3.70233
36 1 -1.1104 12.0538 -0.682368 0.989725
37 2 2.2208 10.6403 -2.10941 2.37168
39 1 -1.1104 12.2782 -0.763044 3.72749
40 1 -1.1104 9.37515 -3.41676 0.927722
42 2 2.2208 7.94483 0.755002 2.2874
43 1 -1.1104 9.05291 -3.53585 3.99129
45 2 2.2208 7.82611 -1.83656 5.09374
47 1 -1.1104 9.2369 -0.659734 1.00821
48 1 -1.1104 9.50654 -0.687498 3.90774
207 1 -1.1104 12.27 -0.697771 6.52273
210 1 -1.1104 9.5365 -0.599046 6.50129
51 2 2.2208 7.94558 -4.72958 2.36769
5 1 -1.1104 6.63352 2.12639 0.852561
33 1 -1.1104 12.0219 1.97052 0.827152
35 1 -1.1104 12.2538 2.03979 3.76726
38 2 2.2208 10.7087 3.54845 2.37758
41 1 -1.1104 9.33586 2.23687 1.23976
44 1 -1.1104 9.31827 2.0371 3.96781
46 2 2.2208 7.9799 3.66799 5.22467
206 1 -1.1104 12.3799 2.18122 6.56962
334 2 2.2208 13.6649 3.54661 5.0918
389 2 2.2208 8.08436 3.52818 -0.311038
171 1 -1.1104 6.67914 -0.643744 6.51419
205 1 -1.1104 12.2257 -3.67601 6.48174
392 2 2.2208 13.639 3.37952 -0.396922
49 2 2.2208 13.4458 0.632225 2.32609
50 2 2.2208 13.6129 -2.07632 5.1652
83 2 2.2208 -0.398126 12.1103 5.10983
54 2 2.2208 5.21183 6.30827 5.08405
56 1 -1.1104 1.13827 7.79154 0.835371
60 1 -1.1104 1.14787 4.99814 1.07116
67 1 -1.1104 0.806671 4.95695 3.72877
71 1 -1.1104 3.76938 7.82598 0.97745
72 2 2.2208 2.42806 6.41509 2.31238
76 1 -1.1104 3.88077 4.95294 1.08476
79 1 -1.1104 3.65275 4.90334 3.91113
74 1 -1.1104 3.78078 7.82434 3.9018
58 1 -1.1104 1.04529 7.75434 3.77381
234 1 -1.1104 0.780575 7.81192 6.54608
63 1 -1.1104 6.52253 4.88063 0.866539
59 1 -1.1104 6.6028 7.72537 3.75051
69 1 -1.1104 6.52746 4.95385 3.65014
57 1 -1.1104 6.40161 7.60086 0.979058
55 2 2.2208 5.23368 12.0135 5.22555
61 1 -1.1104 1.01082 10.6047 1.01724
66 2 2.2208 5.21191 9.08196 2.3856
68 1 -1.1104 0.992125 10.5483 3.97176
73 2 2.2208 2.57829 12.0704 2.38999
75 2 2.2208 2.45261 9.19855 5.23273
77 1 -1.1104 3.85105 10.6529 1.02257
80 1 -1.1104 3.58501 10.6686 3.90197
70 1 -1.1104 6.52064 10.4042 3.75277
64 1 -1.1104 6.57598 10.495 1.09652
82 2 2.2208 -0.326843 9.31851 2.44088
235 1 -1.1104 6.5361 7.75085 6.57316
239 1 -1.1104 3.84593 5.14838 6.6221
62 1 -1.1104 1.2353 10.5438 6.56195
395 2 2.2208 5.2586 12.0448 -0.35404
84 2 2.2208 10.8526 6.40388 5.16192
86 1 -1.1104 12.4633 7.37634 0.805243
87 1 -1.1104 12.1484 7.68827 3.57971
88 1 -1.1104 12.223 4.73108 0.920186
92 1 -1.1104 12.1691 5.01522 3.69711
94 1 -1.1104 9.51383 7.73895 0.865385
95 2 2.2208 7.9841 6.24914 2.22356
97 1 -1.1104 9.30533 7.93738 3.53727
99 1 -1.1104 9.42122 5.04865 0.977859
102 1 -1.1104 9.38147 5.03075 3.91802
269 1 -1.1104 9.42737 4.96601 6.61269
265 1 -1.1104 12.1107 7.77271 6.37967
266 1 -1.1104 12.3123 4.89046 6.56329
85 2 2.2208 10.8657 12.0732 5.12831
89 1 -1.1104 12.0691 10.2537 0.868893
91 2 2.2208 10.7562 9.24539 2.28432
93 1 -1.1104 12.2576 10.5603 3.63632
96 2 2.2208 7.83048 11.9002 2.37319
98 2 2.2208 8.15435 9.13088 5.15263
100 1 -1.1104 9.25828 10.6422 0.931669
103 1 -1.1104 9.24125 10.6113 3.7297
101 1 -1.1104 9.55157 10.7289 6.52331
65 1 -1.1104 6.71459 10.505 6.54383
105 2 2.2208 13.5808 6.45414 2.40128
399 2 2.2208 7.92138 9.23703 -0.368839
135 2 2.2208 -0.36153 14.834 2.38878
107 1 -1.1104 0.981237 13.452 1.16561
113 1 -1.1104 1.09188 13.4836 3.9052
123 1 -1.1104 3.86835 13.3794 0.888355
128 1 -1.1104 3.84326 13.5481 3.59568
124 1 -1.1104 3.74558 13.3825 6.58998
130 2 2.2208 2.42631 14.7798 5.25766
111 1 -1.1104 6.52151 13.4321 6.53983
110 1 -1.1104 6.50095 13.2928 1.15499
115 1 -1.1104 6.61526 13.2554 3.74547
119 2 2.2208 5.07294 14.879 2.36732
106 2 2.2208 5.11651 17.7408 5.11247
109 1 -1.1104 0.995816 19.0735 0.917972
114 1 -1.1104 1.07133 18.9288 3.73953
116 1 -1.1104 0.887398 16.365 0.859708
120 2 2.2208 5.25756 20.4054 2.57868
121 1 -1.1104 0.994253 16.1413 3.71874
125 1 -1.1104 3.9613 18.7286 1.09994
127 2 2.2208 2.40271 17.6138 2.30912
129 1 -1.1104 3.76925 19.0751 3.80555
131 2 2.2208 2.24262 20.3682 5.24175
132 1 -1.1104 3.71212 16.154 1.00022
134 1 -1.1104 3.88444 16.2139 3.84789
126 1 -1.1104 3.86323 18.9596 6.61107
117 1 -1.1104 0.90881 16.1023 6.57817
122 1 -1.1104 6.60263 16.2878 3.7793
139 1 -1.1104 6.56041 19.1165 3.8089
133 1 -1.1104 3.73397 16.2996 6.62304
136 2 2.2208 -0.358907 20.5329 2.33483
403 2 2.2208 2.28177 14.8529 -0.360742
137 2 2.2208 -0.369167 17.773 5.16823
142 1 -1.1104 12.2995 13.3195 0.890862
146 1 -1.1104 12.1949 13.3206 3.82265
153 1 -1.1104 9.35681 13.4155 1.05139
158 1 -1.1104 9.4264 13.4476 3.68473
154 1 -1.1104 9.55868 13.5514 6.3311
138 1 -1.1104 6.71937 18.8492 0.801942
112 1 -1.1104 6.70267 18.9368 6.55709
140 1 -1.1104 6.67972 15.9986 1.14784
150 2 2.2208 10.8959 14.7551 2.39407
160 2 2.2208 7.9884 14.7087 5.12889
141 2 2.2208 10.9508 17.5261 5.33402
144 1 -1.1104 12.2786 19.1097 1.08763
147 1 -1.1104 12.1587 18.7895 3.75669
148 1 -1.1104 12.1903 16.1367 0.890178
151 2 2.2208 10.7454 20.3698 2.40946
152 1 -1.1104 12.2187 16.2101 3.78945
155 1 -1.1104 9.36397 18.9484 1.03479
157 2 2.2208 7.96896 17.5776 2.21077
159 1 -1.1104 9.43578 18.9471 3.699
161 2 2.2208 8.04101 20.4185 5.14101
162 1 -1.1104 9.54511 16.1958 0.993362
164 1 -1.1104 9.3867 16.0944 3.89486
149 1 -1.1104 12.2994 15.9381 6.56254
118 1 -1.1104 6.77731 16.1123 6.47936
156 1 -1.1104 9.72175 18.9065 6.47563
337 2 2.2208 13.5396 14.7448 5.15124
165 2 2.2208 13.5555 17.5341 2.49093
145 1 -1.1104 12.4316 18.9778 6.53016
377 2 2.2208 8.04505 14.7367 -0.327485
203 2 2.2208 5.13784 -4.82577 10.5617
347 2 2.2208 2.36291 -4.8924 13.5572
367 2 2.2208 -0.404643 3.60555 13.6185
175 2 2.2208 5.26123 0.717453 10.6844
176 1 -1.1104 0.841521 -3.59267 12.1295
180 1 -1.1104 0.854579 -3.57933 9.34432
184 1 -1.1104 1.00573 -0.580349 12.2462
186 2 2.2208 5.13679 -2.13355 7.83124
188 1 -1.1104 0.792142 -0.833767 9.36674
190 1 -1.1104 3.69965 -3.45147 12.1633
192 2 2.2208 2.24672 0.695057 8.01234
193 1 -1.1104 3.73824 -3.51155 9.37851
195 2 2.2208 2.3057 -2.24937 10.7603
197 1 -1.1104 3.81463 -0.551088 11.963
198 1 -1.1104 3.67965 -0.682043 9.16567
182 1 -1.1104 6.61789 -3.36637 9.35927
178 1 -1.1104 6.45835 -3.45456 12.1643
348 2 2.2208 5.16827 -2.0806 13.4702
189 1 -1.1104 6.57968 -0.599738 9.18634
352 2 2.2208 5.16703 3.7154 13.55
173 1 -1.1104 3.84486 2.19842 6.64055
177 1 -1.1104 0.884586 2.27042 12.1124
181 1 -1.1104 0.837273 2.15047 9.38476
187 2 2.2208 5.04773 3.60826 7.98825
191 1 -1.1104 3.73232 2.20195 12.0542
194 1 -1.1104 3.69682 2.08251 9.38429
196 2 2.2208 2.179 3.67862 10.7592
183 1 -1.1104 6.53959 2.32397 9.44822
349 2 2.2208 2.29973 0.899052 13.4783
232 2 2.2208 10.8488 -4.72795 10.7784
353 2 2.2208 8.04202 -4.88092 13.4552
231 2 2.2208 8.07869 -4.69095 7.97558
209 1 -1.1104 9.35034 2.18547 6.6597
229 2 2.2208 13.6202 0.859915 8.07664
357 2 2.2208 10.626 3.45687 13.6277
338 2 2.2208 13.5442 3.50823 10.9053
355 2 2.2208 7.97646 0.744457 13.4502
185 1 -1.1104 6.66792 -0.702879 12.0512
208 1 -1.1104 9.58487 -3.56745 6.79229
211 2 2.2208 10.784 0.652218 10.7277
212 1 -1.1104 12.2215 -3.47643 12.2578
214 1 -1.1104 12.1106 -3.40852 9.31218
216 1 -1.1104 12.3325 -0.805649 12.2154
217 2 2.2208 10.8916 -2.10383 7.86383
219 1 -1.1104 12.1495 -0.638176 9.35456
220 1 -1.1104 9.41412 -3.51504 12.2059
222 2 2.2208 8.02627 0.787184 7.9208
223 1 -1.1104 9.50793 -3.39597 9.52956
225 2 2.2208 8.02966 -2.0243 10.5837
227 1 -1.1104 9.44795 -0.715972 12.0165
228 1 -1.1104 9.34088 -0.709209 9.12437
179 1 -1.1104 6.64693 2.05156 12.1658
213 1 -1.1104 12.1819 2.14329 12.4252
215 1 -1.1104 12.254 2.18705 9.44758
218 2 2.2208 10.8465 3.44763 7.95353
221 1 -1.1104 9.46102 2.19173 12.1804
224 1 -1.1104 9.40242 2.13537 9.52262
226 2 2.2208 8.06536 3.53867 10.6993
356 2 2.2208 10.7139 -2.00114 13.6347
78 1 -1.1104 4.00309 10.6377 6.74478
344 2 2.2208 -0.385007 6.40205 10.9376
343 2 2.2208 -0.372403 9.27632 7.98802
238 1 -1.1104 3.55758 7.97098 6.82915
236 1 -1.1104 0.994081 4.74763 6.65564
240 2 2.2208 5.24202 6.50841 10.8464
242 1 -1.1104 0.972663 7.75159 12.1134
244 1 -1.1104 1.20858 7.88658 9.43386
246 1 -1.1104 1.02653 5.05571 12.4139
251 1 -1.1104 0.881473 5.1505 9.38253
256 2 2.2208 2.25881 6.47883 7.9614
258 1 -1.1104 3.97193 7.8619 9.49933
260 1 -1.1104 3.80435 5.24686 12.4072
262 1 -1.1104 3.82493 5.07798 9.484
255 1 -1.1104 3.72368 7.90478 12.3085
253 1 -1.1104 6.61334 5.15172 9.49749
248 1 -1.1104 6.53433 5.06836 12.2327
241 2 2.2208 5.11962 12.1074 10.8294
247 1 -1.1104 1.14936 10.6226 12.2317
250 2 2.2208 5.18435 9.3121 8.0301
252 1 -1.1104 0.915045 10.6399 9.35108
257 2 2.2208 2.33368 12.0969 8.11313
259 2 2.2208 2.43491 9.29435 10.7254
261 1 -1.1104 3.67051 10.7745 12.2224
263 1 -1.1104 3.69178 10.7201 9.41856
254 1 -1.1104 6.54136 10.7579 9.52948
249 1 -1.1104 6.57779 10.5801 12.2042
359 2 2.2208 2.37538 6.62085 13.6518
361 2 2.2208 2.31252 12.0529 13.6197
362 2 2.2208 13.5348 11.9724 13.6531
267 1 -1.1104 9.58894 7.65379 6.70461
90 1 -1.1104 12.4161 10.4472 6.65603
339 2 2.2208 13.6322 6.24893 7.99717
237 1 -1.1104 6.69927 4.8705 6.70302
243 1 -1.1104 6.64226 7.77918 12.2483
245 1 -1.1104 6.71585 8.03018 9.36662
268 1 -1.1104 9.29881 4.87191 9.32481
271 1 -1.1104 9.31699 4.9289 12.1762
273 1 -1.1104 9.39068 7.84856 9.46406
275 2 2.2208 7.97309 6.34567 8.02956
276 2 2.2208 10.7314 6.25731 10.7487
278 1 -1.1104 12.1929 7.80746 12.1148
279 1 -1.1104 12.4099 7.65529 9.30212
280 1 -1.1104 12.1245 4.90305 12.2106
283 1 -1.1104 12.112 4.94507 9.25733
285 1 -1.1104 9.46566 7.8483 12.0746
264 1 -1.1104 9.45142 10.5854 9.28577
270 1 -1.1104 9.17629 10.6322 12.168
272 2 2.2208 7.98544 9.26528 10.8295
274 2 2.2208 8.11527 12.0733 7.98182
277 2 2.2208 10.8814 12.0081 10.7179
281 1 -1.1104 12.0853 10.4505 12.2224
282 2 2.2208 10.9654 9.09727 7.94899
284 1 -1.1104 12.2668 10.3901 9.54458
365 2 2.2208 7.717 12.0047 13.5769
363 2 2.2208 8.06783 6.47307 13.6446
364 2 2.2208 10.5791 9.24948 13.6089
108 1 -1.1104 0.840939 13.3746 6.71093
371 2 2.2208 5.08591 14.9674 13.4904
304 1 -1.1104 3.83464 16.2405 9.43419
289 1 -1.1104 6.53361 16.2198 9.33075
296 1 -1.1104 6.39848 19.2392 12.0774
303 2 2.2208 2.34476 17.6977 8.03162
305 1 -1.1104 3.74433 13.4569 9.36812
299 1 -1.1104 1.0565 13.5023 12.1459
294 1 -1.1104 0.820524 13.7717 9.40331
287 1 -1.1104 3.72187 13.4967 12.1564
301 1 -1.1104 3.8269 19.0884 9.4434
297 1 -1.1104 6.37958 13.3977 12.2821
302 1 -1.1104 0.776995 18.9515 6.79143
306 1 -1.1104 6.43062 16.3593 12.2527
295 2 2.2208 5.0997 14.8076 7.93089
310 2 2.2208 2.23133 14.9401 10.8275
286 1 -1.1104 3.64993 19.2194 12.1713
292 1 -1.1104 1.05227 16.3816 9.52911
293 2 2.2208 5.21744 20.3725 7.98638
298 1 -1.1104 1.01522 19.0474 12.4802
300 2 2.2208 4.98767 17.6458 10.7851
308 1 -1.1104 3.83881 16.3928 12.2955
309 2 2.2208 2.2936 20.6452 10.8824
291 1 -1.1104 0.888753 19.2775 9.49594
307 1 -1.1104 1.10038 16.2686 12.3025
380 2 2.2208 13.6283 17.6022 13.6667
323 1 -1.1104 12.0967 16.2071 9.45409
320 2 2.2208 8.08829 17.6682 7.81751
143 1 -1.1104 12.3534 13.1673 6.81435
327 1 -1.1104 12.4503 19.0067 9.23323
314 1 -1.1104 9.33562 16.2734 9.39727
372 2 2.2208 10.8635 20.4111 13.5072
376 2 2.2208 7.95782 17.6397 13.5599
331 2 2.2208 10.683 17.5951 10.6673
288 1 -1.1104 6.71634 18.8432 9.4313
315 1 -1.1104 9.19777 15.8685 12.1554
324 2 2.2208 10.9214 20.4234 7.91281
373 2 2.2208 10.6939 14.7814 13.5959
321 1 -1.1104 9.3986 18.9875 12.1268
316 2 2.2208 7.96335 20.3708 10.6833
325 2 2.2208 10.8845 14.8678 8.12958
329 1 -1.1104 12.1015 18.8783 12.002
290 1 -1.1104 6.68889 13.3852 9.34559
319 1 -1.1104 9.52149 13.5655 9.44553
322 1 -1.1104 9.37289 13.2161 12.1432
328 1 -1.1104 12.3826 13.4992 9.57352
330 1 -1.1104 12.1321 13.2759 12.3043
317 2 2.2208 7.9055 14.823 10.718
163 1 -1.1104 9.65732 16.074 6.65533
326 1 -1.1104 12.0225 16.1119 12.1979
318 1 -1.1104 9.5579 19.1897 9.24461
332 2 2.2208 13.6291 17.5254 8.00164
333 2 2.2208 13.5151 14.8172 11.0198
406 2 2.2208 5.33075 0.788488 16.2158
407 1 -1.1104 1.01449 -3.49695 17.8098
411 1 -1.1104 0.867795 -3.49958 14.8254
419 1 -1.1104 0.826213 -0.69168 17.7122
421 2 2.2208 5.25575 -2.09939 18.9229
423 1 -1.1104 0.838504 -0.858942 14.8895
427 1 -1.1104 3.77326 -3.36218 17.7825
429 2 2.2208 2.37266 0.741311 19.2508
430 1 -1.1104 3.69641 -3.53663 15.0504
434 2 2.2208 2.29425 -2.09325 16.2695
436 1 -1.1104 3.85271 -0.580544 17.7722
437 1 -1.1104 3.62411 -0.660845 14.7123
431 1 -1.1104 3.76243 -3.40537 20.5457
425 1 -1.1104 6.32151 -0.663103 14.8918
409 1 -1.1104 6.47928 -3.51732 17.6649
416 1 -1.1104 6.59655 -3.41635 20.5587
426 1 -1.1104 6.56018 -0.822968 20.4342
424 1 -1.1104 0.937812 -0.739389 20.5357
440 2 2.2208 5.25972 -4.763 16.3089
441 2 2.2208 2.19737 -4.9149 19.2056
408 1 -1.1104 0.997295 1.92782 17.8623
413 1 -1.1104 0.948405 2.0124 14.9454
422 2 2.2208 5.15477 3.60985 19.4311
428 1 -1.1104 3.79925 2.32013 17.6841
432 1 -1.1104 3.90904 2.29164 14.792
435 2 2.2208 2.43303 3.65476 16.412
433 1 -1.1104 3.67305 2.09869 20.6636
414 1 -1.1104 0.965016 2.08459 20.5717
410 1 -1.1104 6.48314 2.16992 18.0284
420 1 -1.1104 6.65984 -0.492211 17.5782
415 1 -1.1104 6.67044 -3.55414 14.8818
474 2 2.2208 10.9139 -4.89382 16.4072
449 2 2.2208 10.7241 0.868497 16.4525
450 1 -1.1104 12.2772 -3.72179 17.6444
452 1 -1.1104 12.1573 -3.50019 14.9531
456 1 -1.1104 12.1496 -0.825306 17.78
457 2 2.2208 10.8099 -2.10539 19.3687
459 1 -1.1104 12.263 -0.534925 14.9674
461 1 -1.1104 9.41043 -3.36344 17.9637
463 2 2.2208 7.9019 0.855202 19.2093
464 1 -1.1104 9.45125 -3.40299 15.1897
468 2 2.2208 8.00988 -2.03659 16.4973
470 1 -1.1104 9.33293 -0.497134 17.8827
471 1 -1.1104 9.29901 -0.654439 15.0284
465 1 -1.1104 9.33938 -3.60717 20.68
477 2 2.2208 13.6564 -2.10839 16.3996
417 1 -1.1104 6.69549 2.17004 15.0111
451 1 -1.1104 12.0638 2.18262 17.8885
454 1 -1.1104 12.1787 2.2422 15.0546
458 2 2.2208 10.8245 3.57761 19.2437
462 1 -1.1104 9.51247 2.38257 17.7755
466 1 -1.1104 9.38875 2.10453 15.013
469 2 2.2208 8.04143 3.58792 16.4217
370 2 2.2208 13.5413 0.729197 13.7344
460 1 -1.1104 12.1127 -0.794732 20.566
453 1 -1.1104 12.2954 -3.45812 20.4603
467 1 -1.1104 9.27381 2.0782 20.5025
579 2 2.2208 13.5985 3.45209 16.3952
578 2 2.2208 13.4903 0.74717 19.3121
482 2 2.2208 5.27426 6.3501 16.5291
484 1 -1.1104 0.843787 7.81937 17.9113
486 1 -1.1104 0.966261 7.88998 15.0269
490 1 -1.1104 0.736874 4.96737 17.8863
495 1 -1.1104 1.0588 5.08615 15.0799
503 1 -1.1104 3.57362 7.97879 18.2224
504 2 2.2208 2.24039 6.46773 19.4087
506 1 -1.1104 3.77064 8.05204 15.2594
509 1 -1.1104 3.69638 5.25815 17.8528
511 1 -1.1104 3.87409 5.11037 15.2796
512 1 -1.1104 3.75488 4.85433 20.6114
499 1 -1.1104 6.58983 5.02692 15.0512
485 1 -1.1104 6.49109 7.78364 18.0139
483 2 2.2208 5.01833 12.0884 16.5366
491 1 -1.1104 1.05735 10.6887 17.8128
494 2 2.2208 5.1973 9.272 19.33
497 1 -1.1104 0.832806 10.6461 15.05
505 2 2.2208 2.34695 12.0216 19.3746
508 2 2.2208 2.33192 9.19126 16.5012
510 1 -1.1104 3.80479 10.7444 17.9331
513 1 -1.1104 3.64657 10.7438 15.1273
501 1 -1.1104 6.43191 10.7348 15.0444
502 1 -1.1104 6.59183 10.6445 20.7118
493 1 -1.1104 6.57255 10.548 17.8291
481 2 2.2208 -0.399744 6.34567 16.4637
496 1 -1.1104 0.968787 4.96634 20.6654
360 2 2.2208 5.15647 9.29275 13.7396
492 1 -1.1104 6.69345 4.86561 17.9506
488 1 -1.1104 6.6416 7.90398 15.1308
518 2 2.2208 10.8929 6.44068 16.3473
520 1 -1.1104 12.297 7.8819 17.6953
521 1 -1.1104 12.4324 7.76956 14.9561
523 1 -1.1104 12.3225 5.04265 17.6719
526 1 -1.1104 12.0709 5.00806 15.0363
530 1 -1.1104 9.32544 7.80208 17.9185
531 2 2.2208 7.91932 6.22822 19.3376
533 1 -1.1104 9.2708 7.61186 15.1514
536 1 -1.1104 9.48947 5.02801 17.7401
538 1 -1.1104 9.36337 4.89235 14.847
522 1 -1.1104 12.1517 7.86643 20.5756
534 1 -1.1104 9.34752 7.79737 20.6802
539 1 -1.1104 9.39618 5.00611 20.606
519 2 2.2208 10.6483 11.8802 16.2381
524 1 -1.1104 12.3475 10.5999 17.7225
525 2 2.2208 10.9005 9.16465 19.1743
528 1 -1.1104 12.0758 10.5022 14.9525
532 2 2.2208 7.99847 11.9435 19.3394
535 2 2.2208 7.95032 9.22705 16.5782
537 1 -1.1104 9.24862 10.4252 17.974
540 1 -1.1104 9.24021 10.5558 15.0169
529 1 -1.1104 12.346 10.6653 20.6434
541 1 -1.1104 9.50502 10.3925 20.6383
527 1 -1.1104 12.2551 5.02191 20.5709
517 2 2.2208 13.6303 12.075 19.1428
366 2 2.2208 13.5544 6.31549 13.7534
546 1 -1.1104 0.979871 13.481 17.8292
550 1 -1.1104 0.945096 13.404 15.1349
566 1 -1.1104 3.74775 13.4239 17.8864
569 1 -1.1104 3.74353 13.4859 14.9594
548 1 -1.1104 6.48434 13.311 17.7383
555 1 -1.1104 6.60403 13.344 20.7038
554 1 -1.1104 6.56473 13.495 14.9945
573 2 2.2208 2.37746 14.7799 16.4292
560 2 2.2208 5.44756 14.7885 19.359
545 2 2.2208 5.14825 17.5217 16.4517
547 1 -1.1104 0.96473 19.0023 17.9995
552 1 -1.1104 0.847392 19.0323 15.2181
558 1 -1.1104 0.959535 16.3143 17.9737
561 2 2.2208 5.13611 20.3278 19.1604
562 1 -1.1104 1.06634 16.2247 15.14
567 1 -1.1104 3.76848 19.0859 17.7013
568 2 2.2208 2.56019 17.5867 19.1845
571 1 -1.1104 3.74083 19.1545 14.9543
574 2 2.2208 2.38366 20.3428 16.39
575 1 -1.1104 3.827 16.1472 17.878
576 1 -1.1104 3.73061 16.2859 15.1271
556 1 -1.1104 6.47804 18.9747 15.0741
565 1 -1.1104 6.59009 16.2003 20.5941
553 1 -1.1104 1.05645 19.1379 20.714
557 1 -1.1104 6.49832 18.9172 20.6336
572 1 -1.1104 3.72648 18.9222 20.5693
564 1 -1.1104 6.58027 16.2617 15.0178
549 1 -1.1104 6.50597 18.8852 17.8568
551 1 -1.1104 0.911597 13.3181 20.6494
570 1 -1.1104 3.71429 13.3015 20.6251
577 1 -1.1104 3.90314 15.9959 20.666
476 2 2.2208 -0.36585 20.3976 19.2927
368 2 2.2208 2.42051 17.7171 13.7576
369 2 2.2208 5.13752 20.5159 13.6957
478 2 2.2208 13.4946 20.5451 16.5283
582 1 -1.1104 12.1151 13.3454 17.8681
584 1 -1.1104 12.1593 13.2623 15.0943
593 1 -1.1104 9.21615 13.4588 17.6774
596 1 -1.1104 9.279 13.5024 14.9408
585 1 -1.1104 12.1708 13.5371 20.6814
597 1 -1.1104 9.42458 13.4122 20.7051
559 1 -1.1104 6.6249 16.1546 17.8559
600 2 2.2208 7.80701 14.7486 16.4443
589 2 2.2208 10.7044 14.7313 19.2709
581 2 2.2208 10.7416 17.5598 16.3938
583 1 -1.1104 12.2626 18.8397 17.8234
586 1 -1.1104 12.0816 19.0496 14.9555
588 1 -1.1104 12.0515 16.1092 17.8231
590 2 2.2208 10.6615 20.2506 19.2904
591 1 -1.1104 12.1554 16.1319 15.0215
594 1 -1.1104 9.39616 18.9014 17.7248
595 2 2.2208 8.00987 17.674 19.1973
598 1 -1.1104 9.40052 18.9929 14.8835
601 2 2.2208 8.1695 20.4279 16.3054
602 1 -1.1104 9.32602 16.1589 17.997
603 1 -1.1104 9.31357 16.2205 15.0051
587 1 -1.1104 12.046 18.9893 20.6929
479 2 2.2208 13.5096 17.4817 19.2951
599 1 -1.1104 9.25915 18.9784 20.6121
480 2 2.2208 13.5011 14.7254 16.361
385 2 2.2208 5.3331 -4.87613 27.6462
381 2 2.2208 5.26272 0.802412 27.5773
418 1 -1.1104 6.45674 2.0581 20.7373
640 2 2.2208 2.53058 -4.89465 24.8774
382 2 2.2208 2.35504 -2.17525 27.5921
438 1 -1.1104 3.7159 -0.636236 20.7179
412 1 -1.1104 0.818139 -3.42049 20.7539
609 2 2.2208 5.17587 0.724997 21.9622
610 1 -1.1104 0.792702 -3.37149 23.5906
614 1 -1.1104 0.871209 -3.31593 26.2903
618 1 -1.1104 1.00182 -0.503133 23.2147
620 2 2.2208 5.24215 -2.07436 24.8341
622 1 -1.1104 0.978924 -0.513397 26.1874
624 1 -1.1104 3.61524 -3.36264 23.3829
626 2 2.2208 2.27384 0.848053 24.8763
627 1 -1.1104 3.85579 -3.5058 26.2631
629 2 2.2208 2.30626 -2.02905 21.9981
631 1 -1.1104 3.86425 -0.582384 23.4566
632 1 -1.1104 3.53521 -0.512923 26.343
612 1 -1.1104 6.39349 -3.56564 23.5819
616 1 -1.1104 6.58391 -3.50046 26.0648
623 1 -1.1104 6.61113 -0.550291 26.1316
611 1 -1.1104 0.956773 2.22325 23.4169
615 1 -1.1104 0.819525 2.34139 26.1866
621 2 2.2208 5.18187 3.46704 24.9948
625 1 -1.1104 3.79933 2.20201 23.4383
628 1 -1.1104 3.78258 2.39256 26.3995
630 2 2.2208 2.26547 3.43949 22.0947
639 2 2.2208 5.12841 -4.69399 21.9398
383 2 2.2208 2.09792 3.4616 27.7131
666 2 2.2208 13.5664 -4.88803 24.6342
672 2 2.2208 13.3914 0.687003 24.8743
619 1 -1.1104 6.68606 -0.78316 23.4056
472 1 -1.1104 9.36504 -0.591268 20.9053
645 2 2.2208 10.6465 0.802994 22.076
646 1 -1.1104 12.1906 -3.40503 23.3619
648 1 -1.1104 12.3183 -3.47468 26.049
650 1 -1.1104 12.1478 -0.55528 23.5029
651 2 2.2208 10.7279 -2.03192 24.9877
653 1 -1.1104 12.1967 -0.641814 26.2474
654 1 -1.1104 9.46527 -3.42698 23.6625
656 2 2.2208 8.08982 0.799828 24.9768
657 1 -1.1104 9.39821 -3.61845 26.3932
659 2 2.2208 7.92644 -2.03632 22.1565
661 1 -1.1104 9.40348 -0.637686 23.584
662 1 -1.1104 9.40337 -0.656842 26.4081
613 1 -1.1104 6.63583 2.16108 23.5892
455 1 -1.1104 12.1814 2.24838 20.7551
617 1 -1.1104 6.65792 2.13266 26.2621
647 1 -1.1104 12.0587 2.12455 23.5901
649 1 -1.1104 12.0209 2.28102 26.5016
652 2 2.2208 10.7855 3.67639 24.818
655 1 -1.1104 9.42536 2.12397 23.5838
658 1 -1.1104 9.31122 2.1335 26.4471
660 2 2.2208 8.04168 3.54911 22.134
671 2 2.2208 13.6096 -2.05573 22.0039
390 2 2.2208 10.8667 -4.88316 27.5931
446 2 2.2208 13.5997 3.72082 22.1145
387 2 2.2208 10.8038 0.681741 27.6251
388 2 2.2208 7.97345 -2.17124 27.6365
702 2 2.2208 -0.351713 9.21751 24.9384
444 2 2.2208 -0.398864 6.42561 21.9825
514 1 -1.1104 3.70548 10.6647 20.8493
396 2 2.2208 -0.359021 11.8848 27.7297
507 1 -1.1104 3.71046 7.64992 20.9943
487 1 -1.1104 1.0695 7.80728 20.7659
489 1 -1.1104 6.47976 7.59507 20.8371
674 2 2.2208 5.08654 6.27893 22.0727
676 1 -1.1104 0.913233 7.84882 23.5299
678 1 -1.1104 1.01852 7.94665 26.3451
680 1 -1.1104 0.896569 4.95214 23.4446
685 1 -1.1104 0.788763 5.02395 26.4271
689 1 -1.1104 3.68913 7.93983 23.5529
690 2 2.2208 2.41475 6.452 25.0543
694 1 -1.1104 3.88398 4.99984 23.6094
696 1 -1.1104 3.51041 4.96938 26.4373
692 1 -1.1104 3.7589 7.88716 26.3382
500 1 -1.1104 6.59484 4.85289 20.7569
682 1 -1.1104 6.52096 5.06309 23.5023
498 1 -1.1104 0.99115 10.5085 20.772
675 2 2.2208 5.22179 11.9874 22.135
681 1 -1.1104 0.767672 10.6236 23.4934
684 2 2.2208 5.29865 9.21761 24.9867
686 1 -1.1104 1.04145 10.7126 26.3804
691 2 2.2208 2.49202 12.0621 25.0202
693 2 2.2208 2.4434 9.15676 22.1024
695 1 -1.1104 3.59359 10.6557 23.7482
697 1 -1.1104 4.0158 10.6534 26.366
683 1 -1.1104 6.45021 10.5575 23.4996
394 2 2.2208 2.42045 9.22088 27.7517
393 2 2.2208 5.25227 6.1629 27.7224
400 2 2.2208 10.6189 11.8765 27.7425
677 1 -1.1104 6.89172 7.98688 23.6806
679 1 -1.1104 6.69351 7.72346 26.4225
687 1 -1.1104 6.65409 4.83816 26.2869
706 1 -1.1104 9.45009 4.73746 26.2674
708 1 -1.1104 9.45998 4.91016 23.3643
710 1 -1.1104 9.5262 7.55594 26.2953
712 2 2.2208 8.12239 6.22382 24.8604
713 2 2.2208 10.7877 6.51411 22.0639
715 1 -1.1104 12.2348 7.88494 23.4177
716 1 -1.1104 12.2596 7.64364 26.259
717 1 -1.1104 12.1771 4.95906 23.3829
720 1 -1.1104 12.2225 4.854 26.2229
722 1 -1.1104 9.4462 7.69266 23.545
688 1 -1.1104 6.70034 10.7114 26.5507
705 1 -1.1104 9.41944 10.5823 26.205
707 1 -1.1104 9.21818 10.5236 23.5267
709 2 2.2208 8.01888 9.07278 22.2422
711 2 2.2208 7.90355 12.0112 25.0573
714 2 2.2208 10.5458 11.9631 22.0237
718 1 -1.1104 12.1659 10.5913 23.355
719 2 2.2208 10.7808 9.24036 24.8297
721 1 -1.1104 12.2748 10.3823 26.2655
726 2 2.2208 13.546 11.9362 24.8332
398 2 2.2208 10.9392 6.29686 27.7488
402 2 2.2208 13.65 9.02288 27.7331
563 1 -1.1104 1.14283 16.2689 20.8979
405 2 2.2208 2.38566 20.441 27.6946
747 1 -1.1104 6.60097 16.187 23.5801
741 1 -1.1104 1.03448 13.4488 23.4198
746 1 -1.1104 3.89262 13.3037 26.3207
731 1 -1.1104 3.85474 13.3387 23.6084
735 1 -1.1104 0.985125 13.315 26.353
736 1 -1.1104 6.56344 18.9537 23.3815
739 1 -1.1104 6.53895 13.4463 23.6833
737 2 2.2208 5.1397 20.4349 24.9681
738 2 2.2208 5.11764 14.8065 25.1079
727 2 2.2208 2.38905 14.7733 22.1459
744 2 2.2208 2.29062 17.5595 24.9296
743 1 -1.1104 3.88924 19.1639 26.3509
742 2 2.2208 5.27869 17.5677 22.1434
740 1 -1.1104 1.18752 19.2093 23.7638
750 2 2.2208 2.48784 20.2978 22.1356
749 1 -1.1104 3.73281 16.241 23.5557
748 1 -1.1104 1.00838 16.3635 23.5236
745 1 -1.1104 3.60371 16.0876 26.3794
729 1 -1.1104 3.85026 18.9855 23.6416
733 1 -1.1104 0.96175 19.0373 26.51
734 1 -1.1104 0.912129 16.0959 26.2965
732 1 -1.1104 6.3364 16.2742 26.3365
723 2 2.2208 -0.326243 17.6731 22.1277
404 2 2.2208 5.16004 17.6683 27.6045
606 2 2.2208 13.5603 20.3522 22.126
375 2 2.2208 13.5384 20.4078 27.7503
638 2 2.2208 10.7569 14.8104 24.9796
379 2 2.2208 7.92574 20.4717 27.7123
700 2 2.2208 7.8971 20.3406 22.028
704 1 -1.1104 9.48247 16.1079 26.2828
635 1 -1.1104 12.2789 18.7941 26.4574
604 1 -1.1104 9.35748 16.2376 20.757
636 1 -1.1104 12.1736 16.3155 23.5461
580 2 2.2208 13.4084 14.9285 22.0847
667 2 2.2208 8.07668 17.7711 24.8938
607 2 2.2208 10.6667 17.7062 22.1676
698 1 -1.1104 9.47578 19.0137 26.3002
699 2 2.2208 7.94238 14.8167 22.0602
605 2 2.2208 13.663 17.6675 24.946
663 1 -1.1104 12.2957 16.1213 26.277
641 2 2.2208 10.819 20.4844 24.9033
633 1 -1.1104 12.087 19.0784 23.6098
665 1 -1.1104 9.29147 19.0356 23.3988
670 1 -1.1104 6.78844 19.0646 26.2302
730 1 -1.1104 6.65203 13.504 26.5806
673 1 -1.1104 9.21372 13.484 26.4282
634 1 -1.1104 11.9746 13.3371 26.3408
664 1 -1.1104 9.27417 13.2369 23.3681
608 1 -1.1104 12.0943 13.4097 23.6816
701 1 -1.1104 9.2911 16.2586 23.433
592 1 -1.1104 12.0354 16.2918 20.7386
378 2 2.2208 10.8089 17.6391 27.7278
751 2 2.2208 5.10702 23.2996 5.20726
753 1 -1.1104 0.930137 24.6537 1.00659
754 1 -1.1104 0.869808 24.5142 3.92042
755 1 -1.1104 0.95776 21.8585 0.896114
757 2 2.2208 5.11744 25.9298 2.20818
758 1 -1.1104 0.968118 21.6297 3.85376
760 1 -1.1104 3.56871 24.6625 0.976375
761 2 2.2208 2.36297 23.1635 2.50877
763 1 -1.1104 3.72345 24.5353 3.75821
764 2 2.2208 2.28803 25.942 5.19457
765 1 -1.1104 3.76885 21.6642 1.15902
767 1 -1.1104 3.81663 21.7759 3.88888
759 1 -1.1104 0.907239 27.2674 3.87193
768 1 -1.1104 3.65598 27.4176 3.68349
766 1 -1.1104 3.77908 27.2552 0.809058
756 1 -1.1104 1.09265 27.3451 1.12593
773 1 -1.1104 6.45156 24.5959 3.90782
775 1 -1.1104 6.61581 27.365 1.15481
894 1 -1.1104 0.765808 21.8392 6.61402
774 1 -1.1104 6.36846 21.585 0.965342
772 1 -1.1104 6.43663 24.4124 0.872229
777 1 -1.1104 6.39008 27.2485 3.87117
896 1 -1.1104 6.52342 21.8219 6.40604
752 2 2.2208 5.06359 28.6939 5.15862
762 2 2.2208 2.38243 28.8428 2.31066
771 2 2.2208 -0.359167 26.0618 2.31644
769 2 2.2208 -0.324753 28.9024 5.22884
798 2 2.2208 13.664 26.0593 5.29918
776 1 -1.1104 6.66774 21.8302 3.73993
778 2 2.2208 10.869 23.2616 5.35924
780 1 -1.1104 12.0639 24.719 0.965835
781 1 -1.1104 12.4166 24.7111 3.77061
782 1 -1.1104 12.105 21.8543 1.00957
784 2 2.2208 10.7769 26.1299 2.44868
785 1 -1.1104 12.4105 21.6702 3.72376
787 1 -1.1104 9.23274 24.6627 0.977903
788 2 2.2208 8.00077 23.2967 2.41282
790 1 -1.1104 9.51425 24.6797 3.8713
791 2 2.2208 7.99941 26.1285 5.41726
792 1 -1.1104 9.21446 22.0142 0.867937
794 1 -1.1104 9.5265 21.7956 3.75088
786 1 -1.1104 12.0825 27.4515 3.6968
927 1 -1.1104 12.2618 27.3638 6.60953
793 1 -1.1104 9.42232 27.4015 1.00082
929 1 -1.1104 9.34863 21.8495 6.56498
928 1 -1.1104 9.39189 24.5603 6.48203
926 1 -1.1104 12.2318 21.6793 6.49996
795 1 -1.1104 9.40795 27.4293 3.87277
925 1 -1.1104 12.3047 24.533 6.49481
783 1 -1.1104 12.302 27.3656 0.891195
779 2 2.2208 10.882 28.7638 5.35534
789 2 2.2208 7.99942 28.6311 2.35354
797 2 2.2208 13.6639 28.8065 2.27344
796 2 2.2208 13.5646 23.2715 2.24393
1128 2 2.2208 10.7644 28.7066 -0.337442
800 1 -1.1104 0.91643 30.1899 0.971211
803 1 -1.1104 0.792928 30.2008 3.78457
806 1 -1.1104 0.811573 32.9562 1.04859
807 2 2.2208 5.2074 31.4904 2.56671
809 1 -1.1104 0.904947 32.912 3.76313
811 1 -1.1104 3.79111 30.2213 1.12693
814 1 -1.1104 3.77045 30.189 3.83426
816 2 2.2208 2.16813 31.6216 5.35056
818 1 -1.1104 3.63131 33.0756 1.11245
819 1 -1.1104 3.63731 33.0513 4.02721
810 1 -1.1104 6.50542 32.9116 3.84434
953 1 -1.1104 0.802831 33.24 6.52931
825 1 -1.1104 6.57726 33.1969 1.00849
954 1 -1.1104 6.54426 32.9674 6.56011
951 1 -1.1104 6.45152 30.1356 6.60378
823 1 -1.1104 6.59451 30.2589 1.1334
824 1 -1.1104 6.5815 30.0022 3.7797
813 2 2.2208 2.25837 34.2464 2.51162
799 2 2.2208 5.23564 34.4387 5.33741
801 1 -1.1104 0.9291 35.8506 1.05556
804 1 -1.1104 0.844623 35.8765 3.80468
808 2 2.2208 5.01897 37.3156 2.49486
812 1 -1.1104 3.69534 35.9647 1.10928
815 1 -1.1104 3.86525 35.7991 3.87872
817 2 2.2208 2.28745 37.2015 5.15321
952 1 -1.1104 6.51226 35.8917 6.49414
805 1 -1.1104 6.5172 35.6535 3.84143
957 1 -1.1104 3.61222 32.8234 6.59523
1130 2 2.2208 2.49251 31.6978 -0.390405
1129 2 2.2208 2.33519 37.3343 -0.361333
820 2 2.2208 -0.404359 37.2496 2.34423
1131 2 2.2208 5.26701 34.631 -0.262266
827 1 -1.1104 12.1772 30.0905 0.912521
829 1 -1.1104 12.2642 30.137 3.95945
831 1 -1.1104 12.2701 32.8018 0.994135
832 2 2.2208 10.9216 31.5166 2.47502
834 1 -1.1104 12.2743 33.0827 3.74558
835 1 -1.1104 9.3918 30.1281 1.09327
838 1 -1.1104 9.40839 30.2803 3.79129
840 2 2.2208 7.99983 31.5296 5.25133