ITEM: TIMESTEP
60000
ITEM: NUMBER OF ATOMS
17760
ITEM: BOX BOUNDS pp pp pp
-4.0466235225348612e-01 2.7744662352253350e+01
-5.0383070688571454e+00 3.3311830706885593e+02
-4.1114478686563871e-01 2.7751144786864927e+01
ITEM: ATOMS id type q x y z
1 2 2.2208 5.54039 0.653127 5.34634
2 1 -1.1104 1.25905 -3.62826 1.12794
6 1 -1.1104 1.29846 -3.69824 3.78277
10 1 -1.1104 1.15795 -0.952532 1.02746
12 2 2.2208 5.59089 -2.0717 2.5205
14 1 -1.1104 1.27366 -0.810897 3.90041
16 1 -1.1104 4.1433 -3.47427 1.13854
18 2 2.2208 2.56571 0.517477 2.48222
19 1 -1.1104 4.02985 -3.5937 3.90639
21 2 2.2208 2.50924 -2.25546 5.25781
23 1 -1.1104 4.01949 -0.906899 1.06735
24 1 -1.1104 4.02506 -0.75229 3.84902
9224 2 2.2208 -0.206103 0.693068 5.34384
9221 2 2.2208 -0.252204 -2.16531 2.45226
231 2 2.2208 8.44375 -4.99668 8.23933
170 1 -1.1104 1.09573 -0.797853 6.5914
166 1 -1.1104 1.20758 -3.75041 6.61291
82 1 -1.1104 12.208 16.0351 9.28559
580 2 2.2208 5.48523 -4.88794 -0.310686
318 2 2.2208 8.08571 14.5365 -0.248075
8 1 -1.1104 6.92057 -3.50908 4.01769
15 1 -1.1104 6.80514 -0.732883 3.94378
11 1 -1.1104 6.98327 -0.787023 1.18099
4 1 -1.1104 7.14327 -3.66579 1.05383
31 2 2.2208 11.2327 0.667233 5.24407
32 1 -1.1104 12.5918 -3.53178 0.9522
34 1 -1.1104 12.5955 -3.63333 3.70332
36 1 -1.1104 12.5445 -0.47024 1.05392
37 2 2.2208 11.2511 -2.24646 2.47446
39 1 -1.1104 12.5828 -0.903629 3.83658
40 1 -1.1104 9.74544 -3.70052 1.08994
42 2 2.2208 8.32378 0.716279 2.39405
43 1 -1.1104 9.7467 -3.50388 4.05759
45 2 2.2208 8.28026 -2.14787 5.3056
47 1 -1.1104 9.7133 -0.661922 1.00009
48 1 -1.1104 9.81393 -0.782445 3.86776
208 1 -1.1104 9.76055 -3.6107 6.8578
205 1 -1.1104 12.5176 -3.5051 6.62746
50 1 -1.1104 12.3907 15.8632 12.1448
171 1 -1.1104 6.805 -0.695336 6.71631
168 1 -1.1104 6.82516 -3.59349 6.64756
210 1 -1.1104 9.6387 -0.750662 6.61563
207 1 -1.1104 12.2933 -0.583434 6.79487
203 2 2.2208 5.50331 -4.98495 10.9069
3 1 -1.1104 1.16767 1.89902 1.23414
7 1 -1.1104 1.32258 1.96789 3.97123
13 2 2.2208 5.38516 3.38176 2.60299
17 1 -1.1104 3.8383 2.01484 1.10101
20 1 -1.1104 4.18362 1.98433 3.89412
22 2 2.2208 2.78359 3.29688 5.19451
9225 2 2.2208 -0.122188 3.32676 2.63767
9236 2 2.2208 -0.494327 17.3814 5.18475
54 2 2.2208 5.43431 6.34259 5.30045
56 1 -1.1104 1.0097 7.49794 1.21905
58 1 -1.1104 1.06586 7.67592 3.81276
60 1 -1.1104 1.21758 4.75974 1.00411
67 1 -1.1104 1.17897 4.76472 3.93987
71 1 -1.1104 4.05216 7.60846 1.0188
72 2 2.2208 2.54798 6.20115 2.51832
74 1 -1.1104 4.03348 7.60655 3.9215
76 1 -1.1104 3.94583 4.93057 1.1
79 1 -1.1104 4.05982 4.83983 3.8314
9230 2 2.2208 -0.323275 6.23394 5.31986
51 2 2.2208 8.27015 -5.04351 2.45892
52 2 2.2208 11.2344 -5.01175 5.13876
288 1 -1.1104 6.71189 18.9343 9.43326
9 1 -1.1104 6.87126 2.08284 4.04345
5 1 -1.1104 7.00035 1.94864 0.987835
33 1 -1.1104 12.432 2.16353 1.20851
35 1 -1.1104 12.5495 1.96231 3.83836
41 1 -1.1104 9.67804 2.08878 1.25345
44 1 -1.1104 9.77135 1.96528 3.94173
46 2 2.2208 8.25997 3.39292 5.35453
38 2 2.2208 11.0619 3.42051 2.53694
59 1 -1.1104 6.5232 7.63843 3.91681
69 1 -1.1104 6.75461 4.81111 3.97003
63 1 -1.1104 6.80542 4.62118 1.36003
57 1 -1.1104 6.94696 7.53635 0.94984
84 2 2.2208 10.9503 6.28791 5.27948
86 1 -1.1104 12.2268 7.67701 1.18199
87 1 -1.1104 12.2505 7.7495 4.01461
88 1 -1.1104 12.6013 4.88959 1.12155
92 1 -1.1104 12.343 4.87415 3.78632
94 1 -1.1104 9.63854 7.63719 1.31399
95 2 2.2208 8.16713 6.25377 2.43223
97 1 -1.1104 9.41455 7.42503 3.94031
99 1 -1.1104 9.63672 4.7371 1.05544
102 1 -1.1104 9.63735 4.73463 4.00874
265 1 -1.1104 12.5455 7.41743 6.70617
266 1 -1.1104 12.3047 4.93251 6.74951
267 1 -1.1104 9.63239 7.66559 6.74963
230 1 -1.1104 9.56501 15.8729 12.4311
55 2 2.2208 5.21995 11.8723 5.34583
61 1 -1.1104 1.33669 10.3861 0.874966
66 2 2.2208 5.28619 9.01198 2.49475
68 1 -1.1104 1.1521 10.4882 3.65759
73 2 2.2208 2.5117 11.7176 2.28178
75 2 2.2208 2.46113 8.97468 5.33182
77 1 -1.1104 4.12592 10.4772 1.047
80 1 -1.1104 3.77373 10.3834 4.01282
9232 2 2.2208 -0.31543 11.8466 5.2939
107 1 -1.1104 1.29184 13.2019 0.935362
113 1 -1.1104 1.12052 13.0651 3.83468
123 1 -1.1104 4.10932 13.3901 0.979217
128 1 -1.1104 3.92657 13.1453 3.85097
119 2 2.2208 5.22977 14.6047 2.44729
163 1 -1.1104 9.35852 16.0356 6.80231
202 2 2.2208 2.63645 -4.95983 7.95612
110 1 -1.1104 6.68091 13.3174 0.939312
64 1 -1.1104 6.83399 10.3548 1.16508
70 1 -1.1104 6.7857 10.3488 3.96782
85 2 2.2208 10.8576 11.8102 5.33483
89 1 -1.1104 12.4643 10.4387 1.05154
91 2 2.2208 10.9069 8.98709 2.64871
93 1 -1.1104 12.3654 10.5366 4.0404
96 2 2.2208 8.05292 11.8336 2.57106
98 2 2.2208 8.16626 9.04709 5.39969
100 1 -1.1104 9.75593 10.4023 1.17496
103 1 -1.1104 9.56881 10.3423 4.10583
101 1 -1.1104 9.66854 10.4488 6.83203
115 1 -1.1104 6.5149 13.2002 3.74729
142 1 -1.1104 12.2342 13.1346 0.938272
146 1 -1.1104 12.2027 13.0974 3.80796
153 1 -1.1104 9.38309 13.1389 1.07996
158 1 -1.1104 9.50825 13.3338 3.91492
150 2 2.2208 10.9679 14.7586 2.41337
165 2 2.2208 8.04589 14.6082 11.0391
29 2 2.2208 5.47542 -4.84816 5.27862
233 1 -1.1104 9.54682 15.8921 9.45149
338 2 2.2208 2.54791 3.42656 -0.284296
130 2 2.2208 2.48966 14.6616 5.19844
106 2 2.2208 5.28096 17.4179 5.16327
109 1 -1.1104 1.11517 18.8664 0.991849
114 1 -1.1104 1.00374 18.6572 3.83141
116 1 -1.1104 1.12588 16.0296 0.865529
120 2 2.2208 5.30391 20.2226 2.53297
121 1 -1.1104 1.19347 15.9488 3.64897
125 1 -1.1104 4.03001 18.9035 1.11719
127 2 2.2208 2.46485 17.5041 2.40654
129 1 -1.1104 3.81596 18.7732 3.80396
131 2 2.2208 2.42761 20.2051 5.2678
132 1 -1.1104 3.96169 16.0757 1.11403
134 1 -1.1104 3.92022 16.1179 3.86812
345 2 2.2208 5.54425 6.16673 -0.0894945
347 2 2.2208 5.33303 11.7959 -0.364998
9134 2 2.2208 13.7486 11.6728 7.9276
319 2 2.2208 10.8858 17.3848 -0.407998
140 1 -1.1104 6.77249 15.9472 1.25152
139 1 -1.1104 6.68686 18.6941 3.83542
138 1 -1.1104 6.80152 18.9579 0.850566
122 1 -1.1104 6.88868 16.0418 3.89962
160 2 2.2208 8.09524 14.6176 5.1592
141 2 2.2208 10.9255 17.3643 5.29768
144 1 -1.1104 12.1666 18.8552 1.01047
147 1 -1.1104 12.2992 18.6035 3.83624
148 1 -1.1104 12.1526 16.1208 1.08158
151 2 2.2208 10.7426 20.1743 2.33753
152 1 -1.1104 12.2386 16.0471 3.87506
155 1 -1.1104 9.50901 18.9298 0.847225
157 2 2.2208 8.2112 17.3543 2.55753
159 1 -1.1104 9.48214 18.8546 3.89716
161 2 2.2208 8.13322 20.1878 5.1547
162 1 -1.1104 9.48867 16.033 0.993257
164 1 -1.1104 9.51821 16.0874 3.90418
9263 2 2.2208 -0.304944 0.71617 -0.132658
172 1 -1.1104 3.94481 -3.64054 6.69448
174 1 -1.1104 3.88595 -0.765908 6.80138
200 2 2.2208 -0.192832 -2.17605 8.15793
201 2 2.2208 -0.364361 0.617395 10.9402
175 2 2.2208 5.20792 0.618677 11.1883
176 1 -1.1104 1.14929 -3.31854 12.3993
180 1 -1.1104 1.41319 -3.59016 9.47834
184 1 -1.1104 1.03986 -0.63038 12.3878
186 2 2.2208 5.37683 -2.07367 8.15765
188 1 -1.1104 1.04919 -0.885962 9.45572
190 1 -1.1104 3.93302 -3.68181 12.4201
192 2 2.2208 2.5328 0.604592 8.18818
193 1 -1.1104 4.03878 -3.47835 9.60598
195 2 2.2208 2.72974 -2.12223 11.0279
197 1 -1.1104 3.7945 -0.898701 12.5079
198 1 -1.1104 4.01211 -0.742362 9.77647
156 1 -1.1104 9.68594 18.7384 6.66392
204 2 2.2208 -0.179049 -4.79326 11.0636
178 1 -1.1104 6.97019 -3.71426 12.2595
182 1 -1.1104 6.963 -3.45436 9.49218
185 1 -1.1104 6.55569 -0.850637 12.4913
189 1 -1.1104 6.74761 -0.559193 9.53329
211 2 2.2208 11.047 0.558523 10.8054
212 1 -1.1104 12.435 -3.52982 12.1384
214 1 -1.1104 12.4457 -3.67064 9.36512
216 1 -1.1104 12.3141 -0.665347 12.1641
217 2 2.2208 11.0753 -2.13155 8.11873
219 1 -1.1104 12.5904 -0.682051 9.43075
220 1 -1.1104 9.74011 -3.9205 12.4732
222 2 2.2208 8.24679 0.78074 8.18106
223 1 -1.1104 9.75942 -3.64298 9.69193
225 2 2.2208 8.22381 -2.04854 10.8805
227 1 -1.1104 9.33743 -0.950278 12.3038
228 1 -1.1104 9.66808 -0.774819 9.47959
27 1 -1.1104 12.2075 18.9128 12.1256
239 1 -1.1104 4.09565 4.65041 6.7308
238 1 -1.1104 3.93061 7.52535 6.59863
199 2 2.2208 -0.318711 3.45613 8.11653
167 1 -1.1104 1.19468 2.03472 6.87182
173 1 -1.1104 4.12985 2.01915 6.70467
177 1 -1.1104 0.972798 1.99936 12.4615
181 1 -1.1104 0.99393 1.89044 9.67966
187 2 2.2208 5.39425 3.50618 8.26585
191 1 -1.1104 3.74544 1.98106 12.6448
194 1 -1.1104 3.81222 1.94418 9.66555
196 2 2.2208 2.52094 3.33042 11.0165
9152 2 2.2208 -0.158416 6.31556 10.8961
236 1 -1.1104 1.26475 4.59765 6.66242
234 1 -1.1104 0.963845 7.63115 6.74555
240 2 2.2208 5.39289 6.16966 11.0465
242 1 -1.1104 1.33039 7.76487 12.3399
244 1 -1.1104 1.41543 7.51592 9.4452
246 1 -1.1104 1.27302 4.94988 12.2904
251 1 -1.1104 1.11158 4.89185 9.54721
256 2 2.2208 2.6116 6.04434 8.12175
258 1 -1.1104 4.0232 7.49307 9.44218
260 1 -1.1104 3.89152 4.58909 12.4923
262 1 -1.1104 3.97277 4.69079 9.51069
255 1 -1.1104 4.04705 7.43165 12.3626
169 1 -1.1104 6.96735 2.02503 6.79989
269 1 -1.1104 9.76613 4.92743 6.67927
209 1 -1.1104 9.8688 2.13369 6.66938
206 1 -1.1104 12.4196 2.20887 6.47287
183 1 -1.1104 6.73801 2.06141 9.72933
179 1 -1.1104 6.86569 2.09102 12.4757
213 1 -1.1104 12.5691 1.92217 12.3331
215 1 -1.1104 12.4263 2.17843 9.66888
218 2 2.2208 11.0939 3.45185 8.13403
221 1 -1.1104 9.68728 1.97367 12.2754
224 1 -1.1104 9.69671 2.22316 9.44486
226 2 2.2208 8.30265 3.3367 10.9657
237 1 -1.1104 6.77861 4.86222 6.8972
245 1 -1.1104 6.63825 7.89257 9.66936
248 1 -1.1104 6.74006 4.74786 12.4191
235 1 -1.1104 6.80546 7.61032 6.91998
253 1 -1.1104 6.92689 4.7975 9.65757
243 1 -1.1104 6.75331 7.55553 12.4715
268 1 -1.1104 9.62357 4.86741 9.50034
271 1 -1.1104 9.60333 4.78266 12.6083
273 1 -1.1104 9.48547 7.58522 9.64344
275 2 2.2208 8.18676 6.094 8.16864
276 2 2.2208 10.9784 6.13486 10.8726
278 1 -1.1104 12.4705 7.64294 12.2802
280 1 -1.1104 12.6204 4.76497 12.435
283 1 -1.1104 12.4505 4.99391 9.54603
285 1 -1.1104 9.66083 7.58122 12.3937
279 1 -1.1104 12.3349 7.58339 9.58868
296 1 -1.1104 6.69598 18.8073 12.2175
124 1 -1.1104 3.93842 13.2716 6.67633
78 1 -1.1104 4.03246 10.4082 6.63279
62 1 -1.1104 1.15372 10.5534 6.73344
9144 2 2.2208 -0.414557 11.9662 11.0947
241 2 2.2208 5.3744 11.8235 10.9237
247 1 -1.1104 0.931984 10.5826 12.4297
250 2 2.2208 5.29552 9.03056 8.11724
252 1 -1.1104 1.11515 10.3819 9.70173
257 2 2.2208 2.60302 11.7784 8.10793
259 2 2.2208 2.66947 8.97617 10.9737
261 1 -1.1104 3.88038 10.2773 12.4267
263 1 -1.1104 3.84914 10.4049 9.41414
9151 2 2.2208 -0.41764 9.11182 8.25841
108 1 -1.1104 1.05427 13.2003 6.72017
287 1 -1.1104 4.04016 13.2031 12.2604
294 1 -1.1104 1.15278 13.3544 9.62987
299 1 -1.1104 1.3458 13.2328 12.4173
305 1 -1.1104 3.95492 13.2114 9.52697
310 2 2.2208 2.51492 14.6876 10.9209
65 1 -1.1104 6.83216 10.4865 6.74885
154 1 -1.1104 9.55049 13.2153 6.75014
30 1 -1.1104 12.4678 13.1157 9.21445
83 1 -1.1104 9.67532 13.1012 12.1388
135 1 -1.1104 9.78064 13.0728 9.37755
254 1 -1.1104 6.80099 10.6192 9.46458
90 1 -1.1104 12.4356 10.3095 6.71739
249 1 -1.1104 6.622 10.3628 12.2534
264 1 -1.1104 9.63878 10.281 9.58105
270 1 -1.1104 9.62696 10.3224 12.2724
272 2 2.2208 8.13217 8.86324 10.9926
274 2 2.2208 8.27527 11.8896 8.24756
277 2 2.2208 11.0106 11.8097 10.9334
281 1 -1.1104 12.4904 10.4214 12.3319
282 2 2.2208 10.9839 8.95622 8.22368
284 1 -1.1104 12.5446 10.3954 9.4273
111 1 -1.1104 6.63608 13.1732 6.69597
143 1 -1.1104 12.3489 13.12 6.55654
53 2 2.2208 10.991 14.5843 8.00547
297 1 -1.1104 6.88934 13.1716 12.4464
290 1 -1.1104 6.77584 13.3553 9.66982
26 1 -1.1104 12.4692 13.242 12.2112
302 1 -1.1104 0.918151 18.7833 6.62541
133 1 -1.1104 3.75543 16.0259 6.70678
117 1 -1.1104 1.00098 16.1059 6.42574
341 2 2.2208 8.36218 3.36503 -0.223826
126 1 -1.1104 4.06514 18.8903 6.7742
9243 2 2.2208 -0.417107 17.2557 10.8943
9403 2 2.2208 -0.121859 -5.0488 -0.206123
304 1 -1.1104 3.79161 15.8998 9.49463
303 2 2.2208 2.46263 17.434 8.01008
301 1 -1.1104 4.02665 18.7745 9.49845
300 2 2.2208 5.2612 17.5035 10.9385
308 1 -1.1104 3.86102 15.8577 12.3785
298 1 -1.1104 0.93549 18.7509 12.4689
309 2 2.2208 2.44432 20.1619 10.8731
307 1 -1.1104 1.03737 15.9327 12.3765
295 2 2.2208 5.16623 14.631 8.18677
286 1 -1.1104 3.88574 18.7116 12.3165
291 1 -1.1104 1.17 18.6475 9.59398
292 1 -1.1104 1.01568 15.8972 9.39896
293 2 2.2208 5.42821 20.1563 7.98122
229 2 2.2208 8.13072 20.0975 10.8936
289 1 -1.1104 6.55763 16.0881 9.56668
25 2 2.2208 10.9154 17.3654 10.7728
81 2 2.2208 10.9199 20.1478 8.0504
105 2 2.2208 7.9828 17.3944 8.0026
145 1 -1.1104 12.375 18.9464 6.66406
149 1 -1.1104 12.1859 16.0258 6.60446
118 1 -1.1104 6.53957 16.0758 6.67069
112 1 -1.1104 7.00229 18.7953 6.59909
49 1 -1.1104 12.4459 18.857 9.29425
104 1 -1.1104 9.40629 18.6712 12.3988
137 1 -1.1104 9.56522 18.7195 9.46958
306 1 -1.1104 6.836 16.0768 12.4629
9254 2 2.2208 -0.380253 11.744 -0.362167
346 2 2.2208 2.60316 8.97484 -0.359511
342 2 2.2208 10.916 11.7837 -0.457333
343 2 2.2208 8.28113 9.00248 -0.227736
337 2 2.2208 2.57825 -2.16345 -0.425573
232 2 2.2208 11.071 -5.10733 10.8792
336 2 2.2208 5.42013 0.572337 -0.291884
9251 2 2.2208 -0.241169 6.30812 -0.290592
28 2 2.2208 2.67885 -4.9113 2.49172
9223 2 2.2208 13.6198 17.4208 7.87292
136 2 2.2208 -0.377457 20.1572 2.42788
9242 2 2.2208 -0.286726 14.6531 8.15637
8999 2 2.2208 13.7121 20.2802 5.225
315 2 2.2208 2.42122 20.1601 -0.283754
9235 2 2.2208 -0.151016 14.6224 2.37079
332 2 2.2208 5.41234 14.6889 13.8247
329 2 2.2208 8.2863 11.7939 13.7566
9233 2 2.2208 13.6426 11.7715 2.39188
9241 2 2.2208 -0.270183 20.2974 8.09971
9256 2 2.2208 -0.133372 3.47314 13.649
333 2 2.2208 10.7503 20.2512 13.5026
331 2 2.2208 5.25775 20.1928 13.4895
340 2 2.2208 8.36771 -2.16653 -0.21482
328 2 2.2208 11.0347 9.06109 13.7192
317 2 2.2208 5.45511 3.44437 13.8835
314 2 2.2208 5.44388 17.3906 -0.33298
344 2 2.2208 11.0128 6.06177 -0.251101
339 2 2.2208 11.1013 0.86151 -0.2457
348 2 2.2208 5.24014 0.685299 16.9295
349 1 -1.1104 1.05409 -3.72822 18.1232
353 1 -1.1104 1.12815 -3.85251 15.2912
361 1 -1.1104 1.02138 -0.839035 18.3221
363 2 2.2208 5.55764 -2.17596 19.4955
365 1 -1.1104 0.92406 -0.988639 15.3824
369 1 -1.1104 4.1045 -3.62828 18.207
371 2 2.2208 2.55386 0.489315 19.5371
372 1 -1.1104 3.79125 -3.44859 15.4045
376 2 2.2208 2.45868 -2.42489 16.784
378 1 -1.1104 3.8714 -0.714421 17.9859
379 1 -1.1104 3.74685 -0.641968 15.3752
385 2 2.2208 -0.288684 -2.32687 19.7119
384 2 2.2208 -0.35989 0.541521 16.8795
9325 2 2.2208 -0.342519 14.6188 24.936
322 2 2.2208 11.0213 -2.32255 13.7026
362 1 -1.1104 6.83069 -0.708032 18.1922
367 1 -1.1104 6.76546 -0.904021 15.389
357 1 -1.1104 6.69231 -3.67246 15.1404
351 1 -1.1104 6.90072 -3.66967 18.0765
391 2 2.2208 11.0549 0.595319 16.5555
392 1 -1.1104 12.4141 -3.52439 17.9023
394 1 -1.1104 12.5531 -3.61207 15.0909
398 1 -1.1104 12.3607 -0.747573 18.0257
399 2 2.2208 10.9486 -2.18451 19.5403
401 1 -1.1104 12.3614 -0.76604 14.9126
403 1 -1.1104 9.62155 -3.63806 18.1854
405 2 2.2208 8.15228 0.634162 19.5356
406 1 -1.1104 9.59041 -3.57115 15.1536
410 2 2.2208 8.35009 -2.25141 16.6634
412 1 -1.1104 9.65849 -0.901318 17.9744
413 1 -1.1104 9.7109 -0.895856 15.2523
402 1 -1.1104 12.31 -0.739536 20.8391
407 1 -1.1104 9.67001 -3.76595 21.0115
414 1 -1.1104 9.53278 -0.901654 20.93
395 1 -1.1104 12.5341 -3.59623 20.7037
358 1 -1.1104 6.74319 -3.57929 20.8654
350 1 -1.1104 1.20795 2.05888 18.1656
355 1 -1.1104 1.37499 1.85174 15.5037
364 2 2.2208 5.34029 3.38094 19.4635
370 1 -1.1104 3.90354 1.90598 18.2569
374 1 -1.1104 4.36998 2.14794 15.3651
377 2 2.2208 2.64766 3.31182 16.462
9439 2 2.2208 -0.241403 6.14588 16.5934
424 2 2.2208 5.371 6.33857 16.6498
426 1 -1.1104 1.14966 7.65671 17.9096
428 1 -1.1104 1.19193 7.39805 15.1179
432 1 -1.1104 1.02742 4.6676 17.9378
437 1 -1.1104 1.29773 4.70118 15.1535
445 1 -1.1104 3.98528 7.64062 18.1022
446 2 2.2208 2.46779 6.1942 19.4942
448 1 -1.1104 4.00982 7.79947 15.0634
451 1 -1.1104 3.77594 4.79504 17.944
453 1 -1.1104 4.02282 5.03397 15.3242
324 2 2.2208 2.65505 6.33446 13.7987
9366 2 2.2208 -0.224903 3.40977 19.3797
609 2 2.2208 11.0676 -4.92933 27.8697
9468 2 2.2208 13.7097 14.6867 22.1173
352 1 -1.1104 6.7927 2.045 18.1824
359 1 -1.1104 7.06881 2.06909 15.2742
393 1 -1.1104 12.4233 2.24061 18.0456
396 1 -1.1104 12.6063 1.96525 15.2569
400 2 2.2208 11.0008 3.57276 19.4592
404 1 -1.1104 9.68316 2.01535 18.049
408 1 -1.1104 9.61727 1.86798 14.9257
411 2 2.2208 8.19476 3.43218 16.6545
434 1 -1.1104 6.61907 4.88414 17.9895
441 1 -1.1104 6.93693 4.94684 15.1965
430 1 -1.1104 6.71739 7.52081 15.2397
427 1 -1.1104 6.91494 7.59875 18.0679
460 2 2.2208 11.129 6.20512 16.4835
462 1 -1.1104 12.5138 7.88635 17.8143
463 1 -1.1104 12.3545 7.39554 15.0058
465 1 -1.1104 12.4917 4.99361 18.0174
468 1 -1.1104 12.722 4.70658 15.2636
472 1 -1.1104 9.77099 7.70293 17.7726
473 2 2.2208 8.25967 6.26917 19.4218
475 1 -1.1104 9.64082 7.68724 15.2236
478 1 -1.1104 9.59538 4.79259 18.0412
480 1 -1.1104 9.80145 4.69218 15.4116
476 1 -1.1104 9.7001 7.48576 20.7664
386 2 2.2208 -0.384419 20.1207 24.9285
360 1 -1.1104 6.74859 2.10325 20.7506
9268 2 2.2208 -0.16073 9.01728 13.7357
9438 2 2.2208 -0.329868 8.94722 19.2799
425 2 2.2208 5.44675 11.7672 16.3883
433 1 -1.1104 1.31015 10.4834 17.8048
436 2 2.2208 5.41719 9.03558 19.2774
439 1 -1.1104 1.27957 10.3944 15.0602
447 2 2.2208 2.50782 11.8623 19.2548
450 2 2.2208 2.63067 8.95044 16.5607
452 1 -1.1104 4.07919 10.4527 17.9092
455 1 -1.1104 4.10628 10.5523 15.0765
9404 2 2.2208 -0.258098 11.5997 16.494
488 1 -1.1104 1.11888 13.1963 17.9593
492 1 -1.1104 0.970608 13.1018 15.2179
508 1 -1.1104 3.84049 13.1035 17.8817
511 1 -1.1104 3.8929 13.4083 15.1673
502 2 2.2208 5.28862 14.5383 19.3275
9470 2 2.2208 13.5415 20.2278 16.4899
581 2 2.2208 5.32051 -5.01534 22.3582
387 2 2.2208 2.66499 -4.90703 13.895
325 2 2.2208 5.44727 8.97152 13.7007
539 1 -1.1104 9.57439 13.3475 20.7507
435 1 -1.1104 6.71581 10.3156 17.792
443 1 -1.1104 6.95954 10.4023 14.9035
461 2 2.2208 11.0486 11.8881 16.5638
466 1 -1.1104 12.4424 10.4693 18.0467
467 2 2.2208 11.102 9.09059 19.299
470 1 -1.1104 12.505 10.5035 15.0858
474 2 2.2208 8.22926 11.7566 19.2599
477 2 2.2208 8.27158 9.14842 16.5116
479 1 -1.1104 9.60422 10.6419 17.8216
482 1 -1.1104 9.67216 10.3181 15.1179
496 1 -1.1104 6.94516 13.1951 15.2641
490 1 -1.1104 6.6497 13.1842 17.8737
524 1 -1.1104 12.3948 13.3715 17.9532
526 1 -1.1104 12.443 13.3113 15.0805
535 1 -1.1104 9.55923 13.1935 17.9863
538 1 -1.1104 9.69243 12.9749 14.9467
531 2 2.2208 10.8261 14.6482 19.2955
417 2 2.2208 8.13632 -5.09522 19.4687
542 2 2.2208 8.12703 14.5513 16.5809
507 1 -1.1104 6.63782 15.9156 20.6363
311 2 2.2208 -0.310896 -2.0941 13.8546
515 2 2.2208 2.36639 14.4905 16.6093
9509 2 2.2208 -0.360472 14.5099 19.4994
487 2 2.2208 5.45581 17.3381 16.3122
489 1 -1.1104 0.924109 18.6882 17.9853
494 1 -1.1104 1.06588 18.7403 15.357
500 1 -1.1104 1.13875 15.8885 17.9641
503 2 2.2208 5.33 20.1891 19.0805
504 1 -1.1104 1.20011 15.9597 15.1818
509 1 -1.1104 3.80061 18.8854 17.8068
510 2 2.2208 2.52094 17.4306 19.3351
513 1 -1.1104 3.89859 18.7807 15.1343
516 2 2.2208 2.51809 20.3059 16.505
517 1 -1.1104 3.88544 15.8843 17.8434
518 1 -1.1104 4.11394 16.0765 15.0217
9510 2 2.2208 -0.220116 17.3993 16.5487
330 2 2.2208 2.42462 17.4035 13.841
323 2 2.2208 11.1803 3.30247 13.8022
499 1 -1.1104 6.7776 18.852 20.6177
498 1 -1.1104 6.80136 18.7669 14.7944
491 1 -1.1104 6.59158 18.7118 17.7208
501 1 -1.1104 6.72625 15.9637 17.8777
506 1 -1.1104 6.95772 15.9588 15.1619
523 2 2.2208 10.8412 17.5423 16.563
525 1 -1.1104 12.1541 18.7955 17.8216
528 1 -1.1104 12.2888 19.1133 14.9195
530 1 -1.1104 12.1945 16.0519 17.8951
532 2 2.2208 10.8646 20.337 19.3341
533 1 -1.1104 12.3891 16.0201 15.1215
536 1 -1.1104 9.31416 18.8099 17.8046
537 2 2.2208 8.05441 17.4751 19.2402
540 1 -1.1104 9.46527 18.9278 15.1465
543 2 2.2208 8.18992 20.2884 16.3273
544 1 -1.1104 9.58351 15.9272 17.8549
545 1 -1.1104 9.55617 16.0586 15.1234
541 1 -1.1104 9.4611 18.905 20.6959
9261 2 2.2208 13.6614 11.8543 13.6894
382 2 2.2208 5.51572 -4.96986 16.7022
380 1 -1.1104 4.07669 -0.949329 20.6362
368 1 -1.1104 6.83004 -0.798894 20.9362
9401 2 2.2208 -0.314637 -2.05093 25.0727
373 1 -1.1104 4.01458 -3.71065 20.9937
354 1 -1.1104 1.11421 -3.66656 20.9897
366 1 -1.1104 1.05926 -0.992214 20.8962
551 2 2.2208 5.46539 0.566008 22.293
552 1 -1.1104 1.18132 -3.50607 23.8682
556 1 -1.1104 1.10277 -3.5912 26.5864
560 1 -1.1104 1.12132 -0.832764 23.5714
562 2 2.2208 5.39798 -2.19564 25.2033
564 1 -1.1104 1.29043 -0.777874 26.2658
566 1 -1.1104 3.80633 -3.69291 23.6869
568 2 2.2208 2.63071 0.577651 25.1866
569 1 -1.1104 3.93945 -3.59756 26.4754
571 2 2.2208 2.48717 -2.28911 22.3681
573 1 -1.1104 3.88888 -0.73672 23.5321
574 1 -1.1104 4.00587 -0.778709 26.4131
9400 2 2.2208 -0.185856 0.60295 22.3011
558 1 -1.1104 6.87295 -3.71567 26.4507
554 1 -1.1104 6.68772 -3.55069 23.6325
561 1 -1.1104 6.75401 -0.962056 23.8215
565 1 -1.1104 6.66915 -0.948174 26.6285
587 2 2.2208 10.9376 0.698722 22.2529
588 1 -1.1104 12.342 -3.36089 23.5952
590 1 -1.1104 12.5346 -3.54543 26.4507
592 1 -1.1104 12.3723 -0.481216 23.6578
593 2 2.2208 11.0208 -2.12016 25.0749
595 1 -1.1104 12.3067 -0.803351 26.5187
596 1 -1.1104 9.64982 -3.64683 23.8378
598 2 2.2208 8.25823 0.77171 25.1249
599 1 -1.1104 9.71625 -3.55136 26.3991
601 2 2.2208 8.18398 -2.22798 22.4224
603 1 -1.1104 9.53957 -0.762881 23.6037
604 1 -1.1104 9.50105 -0.702152 26.2943
449 1 -1.1104 4.09327 7.61841 20.7959
454 1 -1.1104 3.94139 4.74578 20.7833
356 1 -1.1104 1.29337 1.92819 20.9801
429 1 -1.1104 1.03652 7.53479 20.7633
375 1 -1.1104 3.98588 1.94299 20.8831
553 1 -1.1104 1.18164 1.98825 23.7615
557 1 -1.1104 1.24525 1.92874 26.7367
563 2 2.2208 5.45915 3.46191 25.0424
567 1 -1.1104 4.19186 2.08225 23.6416
570 1 -1.1104 3.7481 2.12244 26.3807
572 2 2.2208 2.74204 3.25451 22.2781
9617 2 2.2208 -0.160927 6.0989 22.3386
438 1 -1.1104 1.07096 4.72502 20.8649
616 2 2.2208 5.26899 6.21295 22.2299
620 1 -1.1104 1.21517 7.59111 26.4285
622 1 -1.1104 1.2279 4.65567 23.4959
627 1 -1.1104 1.16095 4.74987 26.4233
631 1 -1.1104 3.85898 7.81687 23.6987
632 2 2.2208 2.71886 6.1915 25.0091
634 1 -1.1104 4.03486 7.55915 26.3679
636 1 -1.1104 3.86688 5.00295 23.6292
638 1 -1.1104 4.04374 4.92979 26.4136
618 1 -1.1104 1.13893 7.45037 23.796
481 1 -1.1104 9.58646 4.68243 20.7289
469 1 -1.1104 12.3255 4.91155 20.7981
431 1 -1.1104 6.83737 7.61171 20.7935
464 1 -1.1104 12.5132 7.78069 20.8108
397 1 -1.1104 12.2503 2.11929 20.8583
409 1 -1.1104 9.61677 2.12815 20.824
559 1 -1.1104 6.57383 2.10738 26.4967
555 1 -1.1104 6.86565 2.06527 23.551
589 1 -1.1104 12.5421 2.1306 23.5635
591 1 -1.1104 12.6492 1.96062 26.5348
594 2 2.2208 11.1404 3.46374 25.1086
597 1 -1.1104 9.54326 1.98775 23.7242
600 1 -1.1104 9.76387 2.08628 26.5303
602 2 2.2208 8.27614 3.43977 22.1511
621 1 -1.1104 6.98293 7.63369 26.3838
624 1 -1.1104 6.68743 4.91304 23.7797
629 1 -1.1104 7.00457 4.78602 26.6622
619 1 -1.1104 6.79281 7.60441 23.553
442 1 -1.1104 6.895 4.89821 20.9834
641 1 -1.1104 12.4622 4.70273 26.6006
648 1 -1.1104 9.78667 4.79416 26.5191
650 1 -1.1104 9.63839 4.85466 23.7853
654 2 2.2208 8.31749 6.13776 25.1412
655 2 2.2208 11.0675 6.2145 22.2097
657 1 -1.1104 12.3449 7.53023 23.7054
659 1 -1.1104 12.5434 4.92009 23.6897
658 1 -1.1104 12.4315 7.54574 26.5372
652 1 -1.1104 9.64322 7.53311 26.4145
607 1 -1.1104 9.63758 7.6504 23.6002
606 2 2.2208 8.13176 20.217 22.0867
440 1 -1.1104 1.16759 10.363 20.7861
493 1 -1.1104 1.19583 13.1719 20.7774
9368 2 2.2208 -0.208447 9.0945 25.1179
9367 2 2.2208 -0.208076 11.791 22.2319
456 1 -1.1104 4.11749 10.1727 20.8644
617 2 2.2208 5.35665 11.7996 22.1678
623 1 -1.1104 1.31331 10.0891 23.7383
626 2 2.2208 5.44728 9.06068 25.085
628 1 -1.1104 1.11834 10.3988 26.3475
633 2 2.2208 2.49718 11.7198 25.1049
635 2 2.2208 2.63903 8.96977 22.2336
637 1 -1.1104 4.07609 10.5818 23.7421
639 1 -1.1104 4.01518 10.358 26.3298
512 1 -1.1104 3.91658 13.1496 20.7554
420 1 -1.1104 4.02873 13.3082 26.5465
458 1 -1.1104 1.37516 13.1606 23.5253
521 1 -1.1104 1.14064 13.1725 26.4411
549 1 -1.1104 4.04448 13.2827 23.6712
585 1 -1.1104 12.2031 16.0938 23.457
497 1 -1.1104 6.82103 13.2704 20.652
471 1 -1.1104 12.5609 10.4671 20.9143
575 1 -1.1104 6.645 13.2115 26.4007
444 1 -1.1104 6.9493 10.6728 20.9036
527 1 -1.1104 12.5238 13.1783 20.7991
644 1 -1.1104 9.61015 13.1292 26.3939
613 1 -1.1104 9.71663 13.3553 23.6569
625 1 -1.1104 6.80935 10.2397 23.6234
483 1 -1.1104 9.65849 10.4227 20.562
630 1 -1.1104 6.72847 10.4559 26.3312
640 1 -1.1104 12.3058 10.4957 26.3175
642 2 2.2208 10.8909 8.97657 24.9193
647 1 -1.1104 9.53745 10.4572 26.2762
649 1 -1.1104 9.64278 10.5459 23.3177
651 2 2.2208 8.18586 8.95903 22.2284
653 2 2.2208 8.13198 11.8285 25.0027
656 2 2.2208 11.0055 11.9229 22.0932
660 1 -1.1104 12.6091 10.1211 23.6465
578 1 -1.1104 12.5048 13.2514 23.4821
583 1 -1.1104 12.4484 13.1967 26.2786
484 1 -1.1104 6.80376 13.3067 23.4814
646 2 2.2208 8.19988 14.8019 22.1222
9396 2 2.2208 -0.252704 3.39673 25.0397
381 2 2.2208 -0.480185 -4.96806 16.8339
505 1 -1.1104 1.05738 15.9051 20.8125
495 1 -1.1104 1.03155 18.9773 21.0243
584 1 -1.1104 12.2556 18.7421 26.3815
9324 2 2.2208 -0.367516 17.4187 22.2286
519 1 -1.1104 3.95323 16.1321 20.879
514 1 -1.1104 3.9046 18.7865 20.5259
388 2 2.2208 2.57801 14.7019 22.0553
485 2 2.2208 5.30327 14.633 24.9937
423 1 -1.1104 3.76365 18.9064 26.3833
422 2 2.2208 2.46625 17.4404 25.0068
421 1 -1.1104 3.74108 16.1222 26.4296
415 1 -1.1104 0.887963 15.8343 23.3333
457 2 2.2208 5.5104 17.4603 22.0557
459 1 -1.1104 0.953144 18.571 23.7512
486 2 2.2208 5.23118 20.2161 24.9127
522 1 -1.1104 0.894737 16.0331 26.2327
576 1 -1.1104 3.70901 18.7624 23.6238
547 1 -1.1104 0.88764 18.7843 26.4073
389 2 2.2208 2.55743 20.0975 22.2419
390 1 -1.1104 3.86592 15.9617 23.6406
645 1 -1.1104 9.3949 18.8196 26.1695
550 2 2.2208 10.7915 17.6363 22.1286
520 1 -1.1104 6.85773 18.7093 23.4381
529 1 -1.1104 12.27 18.8953 20.584
548 1 -1.1104 6.5658 15.9474 26.5608
643 1 -1.1104 6.67156 18.8228 26.2299
579 1 -1.1104 12.3732 18.898 23.443
608 2 2.2208 10.958 20.2823 24.8598
534 1 -1.1104 12.2863 16.1173 20.7748
546 1 -1.1104 9.4094 16.226 20.6737
612 1 -1.1104 12.3069 16.0441 26.3993
577 1 -1.1104 9.32351 15.9099 26.2199
605 1 -1.1104 9.51653 16.1506 23.3787
614 1 -1.1104 9.5475 18.9796 23.4427
586 2 2.2208 10.9913 14.7732 25.0165
615 2 2.2208 7.88389 17.3246 24.9216
419 1 -1.1104 6.72673 16.0512 23.3815
327 2 2.2208 8.32293 6.18336 13.9461
312 2 2.2208 5.34636 -2.17699 14.0425
326 2 2.2208 2.62767 11.9023 13.7288
316 2 2.2208 2.36641 0.521737 13.9033
313 2 2.2208 2.49982 14.5636 27.6903
321 2 2.2208 8.18239 0.5668 13.763
320 2 2.2208 8.1653 20.3369 27.5727
9278 2 2.2208 -0.283656 14.5288 13.9402
9279 2 2.2208 -0.391518 20.0934 13.7782
335 2 2.2208 8.28458 17.314 13.7807
334 2 2.2208 11.0444 14.69 13.8101
661 2 2.2208 5.30785 22.9394 5.21884
663 1 -1.1104 1.10501 24.3227 0.999785
664 1 -1.1104 1.12133 24.5022 3.87177
665 1 -1.1104 1.17335 21.6796 1.16256
667 2 2.2208 5.39262 25.9318 2.36246
668 1 -1.1104 1.09513 21.4936 3.79117
670 1 -1.1104 3.94925 24.4626 0.791724
671 2 2.2208 2.64665 23.1518 2.44448
673 1 -1.1104 4.01124 24.4204 3.85351
674 2 2.2208 2.43282 25.8117 5.32909
677 1 -1.1104 3.92406 21.6051 3.8309
675 1 -1.1104 3.86095 21.6895 0.941858
666 1 -1.1104 0.88876 27.1424 0.963003
676 1 -1.1104 3.65028 27.1858 1.12969
678 1 -1.1104 3.75024 27.2035 3.9353
669 1 -1.1104 0.870003 27.2316 3.82659
1332 1 -1.1104 3.89169 47.0406 3.68736
1313 1 -1.1104 1.12707 47.0105 4.05249
1523 1 -1.1104 4.01735 47.1076 9.48705
680 2 2.2208 -0.293117 23.0836 5.07421
989 2 2.2208 5.24501 23.0715 -0.471782
686 1 -1.1104 6.62095 21.6186 3.89173
683 1 -1.1104 6.70913 24.4239 3.81509
684 1 -1.1104 6.47604 21.6871 0.98003
682 1 -1.1104 6.66924 24.4836 1.14476
685 1 -1.1104 6.55005 27.2225 0.906074
688 2 2.2208 10.9557 23.0044 5.27331
690 1 -1.1104 12.3728 24.416 1.05894
691 1 -1.1104 12.5756 24.2056 3.97843
692 1 -1.1104 12.2473 21.5193 0.770746
694 2 2.2208 10.9001 25.7855 2.4482
695 1 -1.1104 12.2731 21.5347 3.81005
697 1 -1.1104 9.48619 24.403 1.01526
698 2 2.2208 8.05138 23.0775 2.47867
700 1 -1.1104 9.52945 24.4788 3.90447
701 2 2.2208 7.98634 25.8426 5.178
702 1 -1.1104 9.36289 21.7868 1.00527
704 1 -1.1104 9.56818 21.5511 3.84295
705 1 -1.1104 9.41873 27.2673 3.69075
696 1 -1.1104 12.3288 27.0665 3.86062
703 1 -1.1104 9.23577 27.4648 1.06186
693 1 -1.1104 12.2961 27.4293 1.11755
687 1 -1.1104 6.58806 27.4693 3.84877
806 1 -1.1104 6.82048 21.5264 6.58792
836 1 -1.1104 12.4117 21.5995 6.65268
662 2 2.2208 5.24905 28.6429 5.26356
672 2 2.2208 2.22191 28.5502 2.58586
710 1 -1.1104 0.90058 30.0096 0.938001
713 1 -1.1104 0.97171 30.1373 3.97176
716 1 -1.1104 1.09085 32.9914 1.16256
717 2 2.2208 5.17589 31.4612 2.37538
719 1 -1.1104 0.919526 32.9751 3.95216
721 1 -1.1104 3.82896 29.9608 0.997489
724 1 -1.1104 3.65699 29.8407 3.69764
726 2 2.2208 2.34062 31.4978 5.31358
728 1 -1.1104 3.89097 32.8198 1.14156
729 1 -1.1104 3.84594 32.9446 3.8486
867 1 -1.1104 3.65698 32.6282 6.74383
1534 1 -1.1104 12.5359 46.4691 6.48278
999 2 2.2208 5.10645 34.2907 -0.407185
863 1 -1.1104 0.911839 32.8059 6.89336
859 1 -1.1104 1.00015 29.9428 6.744
1328 1 -1.1104 4.03166 46.6917 1.01813
1511 1 -1.1104 6.49938 46.6008 9.20219
864 1 -1.1104 6.41236 32.7021 6.38771
689 2 2.2208 10.8352 28.7378 5.15314
699 2 2.2208 7.87199 28.6957 2.34268
733 1 -1.1104 6.65795 30.1667 1.02411
735 1 -1.1104 6.66776 32.7804 0.880309
734 1 -1.1104 6.49243 30.082 3.78395
720 1 -1.1104 6.72502 32.9635 3.7328
737 1 -1.1104 12.1192 30.3169 1.14093
739 1 -1.1104 12.5652 29.9097 3.93194
741 1 -1.1104 12.4176 33.0464 0.858183
742 2 2.2208 10.9063 31.7689 2.48792
744 1 -1.1104 12.4434 32.7833 3.84387
745 1 -1.1104 9.25604 30.0412 1.00117
748 1 -1.1104 9.62086 30.3254 3.85662
750 2 2.2208 8.12218 31.4558 5.18281
752 1 -1.1104 9.61291 33.0035 0.961462
753 1 -1.1104 9.66011 33.126 3.71087
896 1 -1.1104 9.48374 29.9669 6.71429
895 1 -1.1104 12.1122 32.8689 6.62672
861 1 -1.1104 6.73254 30.0139 6.62864
893 1 -1.1104 12.2456 30.0433 6.67781
840 1 -1.1104 9.40502 27.2401 6.60501
978 2 2.2208 2.65536 42.7273 -0.384731
959 2 2.2208 8.05446 45.4697 7.96617
709 2 2.2208 5.27221 34.3914 5.25739
711 1 -1.1104 1.00073 35.6084 1.0616
714 1 -1.1104 1.18518 35.6431 3.93473