ITEM: TIMESTEP
100000
ITEM: NUMBER OF ATOMS
17760
ITEM: BOX BOUNDS pp pp pp
-4.0211912514706211e-01 2.7742119125146942e+01
-4.9455710020531898e+00 3.3302557100205456e+02
-4.1972734406806478e-01 2.7759727344067738e+01
ITEM: ATOMS id type q x y z
1 2 2.2208 5.40889 0.682073 5.27054
2 1 -1.1104 1.29611 -3.26732 1.13033
6 1 -1.1104 1.17968 -3.54016 3.94325
10 1 -1.1104 1.23546 -0.608478 1.12575
12 2 2.2208 5.59879 -2.27079 2.60251
14 1 -1.1104 1.21727 -0.789775 3.96186
16 1 -1.1104 4.28859 -3.72162 1.234
18 2 2.2208 2.57061 0.613779 2.54555
19 1 -1.1104 4.04133 -3.58642 4.21657
21 2 2.2208 2.76931 -2.17211 5.44894
23 1 -1.1104 4.2013 -0.996744 1.09316
24 1 -1.1104 4.09634 -0.582162 3.8923
199 2 2.2208 -0.0938642 3.59419 8.25349
9221 2 2.2208 -0.217127 -2.05625 2.70588
9224 2 2.2208 -0.0589284 0.697629 5.38581
229 2 2.2208 8.03299 20.2008 10.9917
29 2 2.2208 5.70725 -4.97875 5.33154
337 2 2.2208 2.74894 -2.35937 -0.168379
137 1 -1.1104 9.55904 19.0345 9.67238
347 2 2.2208 5.41604 11.8579 -0.241189
313 2 2.2208 2.64657 14.7607 -0.37623
9254 2 2.2208 -0.112098 11.7449 -0.283037
15 1 -1.1104 6.87769 -0.874888 4.08195
8 1 -1.1104 6.95587 -3.64559 3.84182
4 1 -1.1104 6.97469 -3.58187 1.096
11 1 -1.1104 6.85174 -0.983704 1.33196
31 2 2.2208 11.0147 0.592284 5.39656
32 1 -1.1104 12.7475 -3.51402 1.11032
34 1 -1.1104 12.5834 -3.63496 3.94799
36 1 -1.1104 12.7595 -0.877703 1.15848
37 2 2.2208 11.2823 -2.18305 2.51873
39 1 -1.1104 12.5111 -0.894018 4.10402
40 1 -1.1104 9.96249 -3.53328 1.22034
42 2 2.2208 8.21634 0.565386 2.6061
43 1 -1.1104 9.76707 -3.51461 3.91994
45 2 2.2208 8.4318 -2.13015 5.4509
47 1 -1.1104 9.87185 -0.749984 1.17734
48 1 -1.1104 9.80818 -0.829985 3.93621
82 1 -1.1104 12.368 16.058 9.55273
9251 2 2.2208 -0.360335 6.35936 -0.237124
207 1 -1.1104 12.4258 -0.848254 6.76471
9263 2 2.2208 -0.171616 0.702343 -0.347774
28 2 2.2208 2.72641 -4.8863 2.59007
9230 2 2.2208 -0.165978 6.27308 5.3054
3 1 -1.1104 1.20288 2.13388 1.16403
7 1 -1.1104 1.24746 2.1216 3.89405
13 2 2.2208 5.52551 3.56002 2.5978
17 1 -1.1104 3.87059 1.99422 1.13689
20 1 -1.1104 4.16843 2.16776 3.9789
22 2 2.2208 2.56443 3.52134 5.29927
54 2 2.2208 5.48234 6.30661 5.20173
56 1 -1.1104 1.1981 7.75881 1.12871
58 1 -1.1104 1.09081 7.62791 4.01759
60 1 -1.1104 1.16176 5.10872 1.02785
67 1 -1.1104 1.27555 4.8472 3.94667
71 1 -1.1104 4.09131 7.61326 0.999419
72 2 2.2208 2.57309 6.42929 2.54721
74 1 -1.1104 3.8747 7.87838 3.76541
76 1 -1.1104 4.10283 4.79688 1.33152
79 1 -1.1104 4.0795 5.0033 4.10185
59 1 -1.1104 6.7239 7.78274 3.85419
239 1 -1.1104 4.03293 4.92674 6.83336
9225 2 2.2208 -0.286123 3.35754 2.533
314 2 2.2208 5.3931 17.4765 -0.194095
236 1 -1.1104 1.29778 4.93381 6.76225
9 1 -1.1104 7.02112 1.99286 3.82938
5 1 -1.1104 6.79202 2.04163 1.05245
69 1 -1.1104 6.94273 4.94151 4.0599
63 1 -1.1104 7.00069 4.87516 1.28009
33 1 -1.1104 12.4638 2.04173 0.84754
35 1 -1.1104 12.3311 2.0858 3.70787
41 1 -1.1104 9.76033 1.96855 1.19339
44 1 -1.1104 9.83975 2.10991 4.09787
46 2 2.2208 8.51894 3.49994 5.36866
38 2 2.2208 11.1131 3.48049 2.43109
57 1 -1.1104 6.98001 7.87351 1.3036
84 2 2.2208 11.0525 6.18319 5.4729
86 1 -1.1104 12.5422 7.64048 1.1339
87 1 -1.1104 12.3854 7.90582 3.94551
88 1 -1.1104 12.5972 4.7898 1.03497
92 1 -1.1104 12.6144 5.00944 3.93624
94 1 -1.1104 9.709 7.72379 1.05774
95 2 2.2208 8.34297 6.38231 2.48749
97 1 -1.1104 9.67715 7.55495 4.00445
99 1 -1.1104 9.55788 4.7164 1.03645
102 1 -1.1104 9.60807 4.93825 3.89577
267 1 -1.1104 9.70755 7.68577 6.69582
235 1 -1.1104 7.00369 7.65427 6.67526
265 1 -1.1104 12.3313 7.59838 6.77346
318 2 2.2208 8.08158 14.724 -0.286929
55 2 2.2208 5.44074 11.8586 5.39592
61 1 -1.1104 1.16327 10.5289 1.23243
66 2 2.2208 5.48611 9.3996 2.49735
68 1 -1.1104 1.18763 10.4164 3.93354
73 2 2.2208 2.60512 11.9291 2.52674
75 2 2.2208 2.45118 9.0366 5.27859
77 1 -1.1104 3.98708 10.4867 1.20433
80 1 -1.1104 4.10627 10.6109 3.87162
107 1 -1.1104 1.10113 13.1989 1.09397
113 1 -1.1104 1.14357 13.1897 3.99451
123 1 -1.1104 4.15818 13.3782 1.01811
128 1 -1.1104 3.71687 13.3399 3.80434
115 1 -1.1104 6.7825 13.293 3.91906
78 1 -1.1104 3.91164 10.5477 6.67899
9231 2 2.2208 -0.229472 9.11698 2.45373
124 1 -1.1104 4.05708 13.2421 6.5372
9232 2 2.2208 -0.0996872 11.8707 5.31697
108 1 -1.1104 1.11411 13.2641 6.78954
163 1 -1.1104 9.45395 16.0337 6.82085
289 1 -1.1104 6.95716 15.9463 9.64564
70 1 -1.1104 6.96771 10.5398 3.82901
64 1 -1.1104 6.88641 10.6427 0.903768
85 2 2.2208 10.8684 11.8329 5.30551
89 1 -1.1104 12.2635 10.5475 0.920708
91 2 2.2208 11.1389 9.19999 2.44881
93 1 -1.1104 12.3743 10.6 3.66371
96 2 2.2208 8.24637 11.9613 2.39513
98 2 2.2208 8.17921 9.05837 5.23554
100 1 -1.1104 9.4748 10.6172 1.01935
103 1 -1.1104 9.52464 10.5014 3.77512
101 1 -1.1104 9.38686 10.3531 6.56337
110 1 -1.1104 6.88113 13.4125 1.1232
142 1 -1.1104 12.3461 13.4297 0.913582
146 1 -1.1104 12.3187 13.358 3.96303
153 1 -1.1104 9.65225 13.4804 1.17674
158 1 -1.1104 9.69796 13.1899 3.92413
154 1 -1.1104 9.75969 13.2276 6.90465
90 1 -1.1104 12.2123 10.4592 6.57065
65 1 -1.1104 6.62268 10.4947 6.7624
143 1 -1.1104 12.4701 13.4117 6.82123
105 2 2.2208 8.24831 17.5426 8.22947
136 2 2.2208 -0.167657 20.2618 2.66718
9235 2 2.2208 -0.179058 14.5695 2.59807
119 2 2.2208 5.44773 14.7534 2.53388
130 2 2.2208 2.58781 14.6493 5.30439
106 2 2.2208 5.33723 17.3979 5.32514
109 1 -1.1104 1.31345 18.9299 1.27818
114 1 -1.1104 1.0459 18.779 4.02924
116 1 -1.1104 1.2452 16.0847 1.1512
120 2 2.2208 5.47674 20.2965 2.55162
121 1 -1.1104 1.14504 16.1591 4.08987
125 1 -1.1104 4.29688 18.8708 1.30034
127 2 2.2208 2.52122 17.4667 2.56094
129 1 -1.1104 3.91772 18.7682 3.90118
131 2 2.2208 2.60346 20.1006 5.44794
132 1 -1.1104 3.95235 16.2181 1.01108
134 1 -1.1104 3.92491 16.0825 3.9284
9236 2 2.2208 -0.244072 17.424 5.41207
117 1 -1.1104 1.12383 15.9939 6.57182
104 1 -1.1104 9.43896 18.7495 12.4652
341 2 2.2208 8.44567 3.31984 -0.318582
145 1 -1.1104 12.2635 19.2658 6.71881
296 1 -1.1104 6.86289 18.7092 12.3104
138 1 -1.1104 6.89268 18.8322 1.20361
139 1 -1.1104 6.91231 18.8727 3.83931
122 1 -1.1104 6.9134 15.9601 3.98583
112 1 -1.1104 6.76802 18.8128 6.72979
140 1 -1.1104 6.9282 16.1486 1.29737
160 2 2.2208 8.35501 14.7232 5.39547
150 2 2.2208 11.0609 14.6722 2.52149
149 1 -1.1104 12.4431 16.107 6.69839
141 2 2.2208 11.0313 17.5976 5.3479
144 1 -1.1104 12.6448 19.0257 1.20503
147 1 -1.1104 12.4069 18.9689 3.87884
148 1 -1.1104 12.3658 16.0335 1.14892
151 2 2.2208 11.2297 20.4927 2.63438
152 1 -1.1104 12.3057 16.1793 3.90175
155 1 -1.1104 9.82616 18.8443 1.28878
157 2 2.2208 8.24207 17.3327 2.66474
159 1 -1.1104 9.67526 19.0589 4.15537
161 2 2.2208 8.3036 20.2537 5.47982
162 1 -1.1104 9.57571 16.1258 1.12494
164 1 -1.1104 9.636 16.0733 4.07314
156 1 -1.1104 9.65236 18.9321 6.92695
118 1 -1.1104 6.73495 16.0203 6.77306
306 1 -1.1104 6.8098 15.9782 12.4939
609 2 2.2208 11.1727 -4.92358 -0.316816
170 1 -1.1104 1.37426 -0.65445 6.92617
174 1 -1.1104 4.26656 -0.809303 6.74594
172 1 -1.1104 4.26405 -3.6613 7.07121
166 1 -1.1104 1.55284 -3.53374 6.81975
288 1 -1.1104 6.7914 18.927 9.54094
343 2 2.2208 8.157 9.13289 -0.386829
200 2 2.2208 0.017632 -2.27414 8.27628
175 2 2.2208 5.58565 0.794511 11.1497
176 1 -1.1104 1.49989 -3.50556 12.4257
180 1 -1.1104 1.35918 -3.69579 9.69928
184 1 -1.1104 1.27946 -0.687167 12.3773
186 2 2.2208 5.68234 -2.28141 8.19826
188 1 -1.1104 1.28614 -0.814349 9.79183
190 1 -1.1104 4.30508 -3.2935 12.4356
192 2 2.2208 2.55157 0.756934 8.37911
193 1 -1.1104 4.15319 -3.52139 9.72871
195 2 2.2208 2.84704 -2.04677 11.0888
197 1 -1.1104 4.10472 -0.606322 12.5078
198 1 -1.1104 3.84663 -0.42359 9.6644
201 2 2.2208 -0.0567657 0.652581 10.9985
319 2 2.2208 11.0238 17.4486 -0.187997
168 1 -1.1104 7.12643 -3.61723 6.65976
205 1 -1.1104 12.6017 -3.52799 6.83862
210 1 -1.1104 9.76389 -0.771645 6.97829
171 1 -1.1104 7.06757 -0.887589 6.88202
208 1 -1.1104 9.86206 -3.65636 6.78495
165 2 2.2208 8.25927 14.5003 11.0553
178 1 -1.1104 6.90158 -3.44645 12.4568
182 1 -1.1104 7.06024 -3.67784 9.61371
185 1 -1.1104 6.79693 -0.683886 12.3417
189 1 -1.1104 6.85451 -0.761152 9.6352
211 2 2.2208 10.9803 0.534426 11.0301
212 1 -1.1104 12.7289 -3.51402 12.2455
214 1 -1.1104 12.4789 -3.72572 9.46558
216 1 -1.1104 12.6455 -0.756706 12.4469
217 2 2.2208 11.1666 -2.26287 8.31177
219 1 -1.1104 12.4489 -0.924476 9.52959
220 1 -1.1104 9.84515 -3.67909 12.212
222 2 2.2208 8.15956 0.589934 8.22219
223 1 -1.1104 9.70734 -3.60494 9.47722
225 2 2.2208 8.25941 -2.22726 10.9876
227 1 -1.1104 9.63424 -0.807198 12.3852
228 1 -1.1104 9.5827 -0.830986 9.79369
234 1 -1.1104 1.29553 7.72682 6.81019
237 1 -1.1104 7.04186 5.13378 6.79331
9152 2 2.2208 -0.152456 6.28823 11.0445
167 1 -1.1104 1.19389 1.9783 6.79613
173 1 -1.1104 3.86097 2.13988 6.95062
177 1 -1.1104 1.25246 2.077 12.2124
181 1 -1.1104 1.29232 2.16873 9.56446
187 2 2.2208 5.33181 3.56298 8.30938
191 1 -1.1104 3.94776 2.13403 12.5126
194 1 -1.1104 4.23631 2.3916 9.93121
196 2 2.2208 2.62698 3.55895 11.0694
238 1 -1.1104 4.00742 7.72992 6.44999
240 2 2.2208 5.40478 6.33734 10.9099
242 1 -1.1104 1.22416 7.6765 12.3914
244 1 -1.1104 1.28362 7.67398 9.59346
246 1 -1.1104 1.18423 5.00242 12.478
251 1 -1.1104 1.27922 5.00079 9.68887
256 2 2.2208 2.56955 6.31055 8.2617
258 1 -1.1104 4.11642 7.71367 9.50457
260 1 -1.1104 3.92861 5.0018 12.5267
262 1 -1.1104 3.95412 4.99841 9.62234
255 1 -1.1104 3.99181 7.6157 12.4241
342 2 2.2208 10.823 11.9287 -0.290421
169 1 -1.1104 6.77618 2.24147 6.67999
206 1 -1.1104 12.3085 2.25732 6.67483
183 1 -1.1104 6.71296 2.12362 9.53757
253 1 -1.1104 6.96599 5.04009 9.42481
243 1 -1.1104 6.8508 7.52928 12.5203
248 1 -1.1104 6.67833 4.95358 12.3436
245 1 -1.1104 6.84617 7.86215 9.51478
209 1 -1.1104 9.62148 2.0045 6.92383
266 1 -1.1104 12.6693 4.93234 6.75154
269 1 -1.1104 9.90075 4.97206 6.90627
179 1 -1.1104 6.80072 2.18788 12.6294
213 1 -1.1104 12.5494 1.88804 12.269
215 1 -1.1104 12.4596 1.93853 9.59187
221 1 -1.1104 9.57055 2.09526 12.3584
224 1 -1.1104 9.68612 2.06061 9.87841
226 2 2.2208 8.10918 3.62443 10.9806
218 2 2.2208 11.017 3.49446 8.21896
268 1 -1.1104 9.70594 4.98286 9.67884
271 1 -1.1104 9.49165 4.94038 12.2861
275 2 2.2208 8.26585 6.50004 8.22758
276 2 2.2208 11.0643 6.34921 11.0023
278 1 -1.1104 12.6282 7.66098 12.2225
280 1 -1.1104 12.5444 4.79232 12.2781
283 1 -1.1104 12.3687 4.73805 9.68933
285 1 -1.1104 9.78769 7.70813 12.6572
273 1 -1.1104 9.57676 7.74523 9.65964
279 1 -1.1104 12.5384 7.5157 9.53937
81 2 2.2208 10.8721 20.3994 8.38707
51 2 2.2208 8.36262 -4.85694 2.52199
9151 2 2.2208 -0.0378619 9.02502 8.17665
62 1 -1.1104 1.25339 10.4906 6.80263
241 2 2.2208 5.58281 11.8369 10.9385
247 1 -1.1104 1.35577 10.4507 12.3124
250 2 2.2208 5.39019 9.06459 8.17801
252 1 -1.1104 1.13653 10.5248 9.58852
257 2 2.2208 2.69503 11.9899 8.10541
259 2 2.2208 2.53248 9.08311 10.8557
261 1 -1.1104 4.0351 10.5937 12.4405
263 1 -1.1104 4.15066 10.3433 9.72861
287 1 -1.1104 3.87508 13.3171 12.2753
294 1 -1.1104 1.11872 13.259 9.65822
299 1 -1.1104 1.12728 13.1463 12.5394
305 1 -1.1104 4.08314 13.0723 9.45311
50 1 -1.1104 12.3993 16.1135 12.4119
49 1 -1.1104 12.3697 18.8397 9.47282
111 1 -1.1104 6.94768 13.1639 6.80472
249 1 -1.1104 6.84742 10.3234 12.4439
297 1 -1.1104 6.84051 13.1708 12.4057
254 1 -1.1104 6.99788 10.4872 9.72804
83 1 -1.1104 9.64286 13.317 12.2477
135 1 -1.1104 9.71265 12.9721 9.66251
26 1 -1.1104 12.5665 13.3135 12.4177
30 1 -1.1104 12.4503 13.1668 9.59276
264 1 -1.1104 9.79701 10.3891 9.69473
270 1 -1.1104 9.90543 10.5011 12.596
272 2 2.2208 8.25156 8.88592 11.2148
274 2 2.2208 8.2741 11.8447 8.2182
277 2 2.2208 11.3326 11.8816 11.0177
281 1 -1.1104 12.7782 10.5565 12.176
282 2 2.2208 11.0618 9.10922 8.0722
284 1 -1.1104 12.6295 10.1804 9.33906
290 1 -1.1104 6.86733 13.2782 9.50608
27 1 -1.1104 12.2668 18.982 12.2996
233 1 -1.1104 9.67503 15.8463 9.62308
9241 2 2.2208 -0.171354 20.2691 8.28878
9243 2 2.2208 -0.169985 17.3409 10.7954
133 1 -1.1104 3.90225 16.0451 6.83852
53 2 2.2208 11.0473 14.6469 8.14388
9242 2 2.2208 -0.267929 14.4966 8.21605
126 1 -1.1104 3.98457 18.7532 6.64088
302 1 -1.1104 1.18233 18.6681 6.81142
310 2 2.2208 2.6787 14.6085 10.9078
295 2 2.2208 5.44306 14.56 8.26882
293 2 2.2208 5.30502 20.1994 8.06433
304 1 -1.1104 4.05186 15.9876 9.65806
303 2 2.2208 2.65478 17.3951 8.17816
301 1 -1.1104 4.0021 18.9581 9.55926
300 2 2.2208 5.59303 17.3403 10.8974
308 1 -1.1104 4.13815 15.9137 12.3768
298 1 -1.1104 1.16382 18.7845 12.4661
309 2 2.2208 2.53604 20.3248 10.9984
307 1 -1.1104 1.19569 16.1912 12.5192
286 1 -1.1104 4.01454 18.9827 12.2165
291 1 -1.1104 1.26955 18.7766 9.59482
292 1 -1.1104 1.36971 15.9149 9.58569
25 2 2.2208 11.0067 17.4899 11.0752
230 1 -1.1104 9.53487 16.089 12.5045
339 2 2.2208 11.1221 0.539217 -0.323008
345 2 2.2208 5.51584 6.05233 -0.144988
204 2 2.2208 0.0832972 -4.86839 10.9807
315 2 2.2208 2.69446 20.2499 -0.137652
9271 2 2.2208 13.6474 14.7513 -0.379749
320 2 2.2208 8.24683 20.1484 -0.116602
346 2 2.2208 2.69676 9.13519 -0.156716
8951 2 2.2208 13.5501 9.07714 5.28848
52 2 2.2208 11.2548 -4.87083 5.33681
338 2 2.2208 2.45496 3.5591 -0.295692
340 2 2.2208 8.26784 -2.22501 -0.168468
203 2 2.2208 5.48182 -4.86698 11.0612
336 2 2.2208 5.44625 0.583518 -0.067168
322 2 2.2208 11.2906 -2.1965 13.5766
344 2 2.2208 11.1143 6.17641 -0.231399
9245 2 2.2208 -0.185042 17.5314 -0.385137
323 2 2.2208 10.9813 3.38322 13.6084
348 2 2.2208 5.40421 0.597583 16.6904
349 1 -1.1104 1.17615 -3.51738 18.0638
353 1 -1.1104 1.45091 -3.69919 15.2867
361 1 -1.1104 1.25255 -0.661391 17.8631
363 2 2.2208 5.56514 -2.22562 19.4398
365 1 -1.1104 1.30643 -0.809279 15.0952
369 1 -1.1104 4.15858 -3.63146 18.1508
371 2 2.2208 2.69927 0.572231 19.5282
372 1 -1.1104 4.27279 -3.42467 15.3698
376 2 2.2208 2.61995 -2.08371 16.5509
378 1 -1.1104 3.93336 -0.756604 18.0871
379 1 -1.1104 4.13881 -0.829108 15.2984
380 1 -1.1104 4.20141 -0.844864 20.946
366 1 -1.1104 1.3182 -0.754613 20.9207
384 2 2.2208 -0.144569 0.680936 16.5092
385 2 2.2208 0.00612107 -2.04937 19.5052
312 2 2.2208 5.5355 -2.01947 13.9018
386 2 2.2208 -0.252454 20.234 24.9542
418 2 2.2208 8.40115 -4.90219 13.7772
381 2 2.2208 -0.00727085 -4.89432 16.5389
334 2 2.2208 10.9979 14.7907 13.7626
367 1 -1.1104 6.93821 -0.87921 15.2846
357 1 -1.1104 7.10862 -3.75313 15.3365
351 1 -1.1104 6.80279 -3.38537 18.0393
362 1 -1.1104 6.87839 -0.889596 18.0333
391 2 2.2208 11.0432 0.444849 16.5
392 1 -1.1104 12.5587 -3.71032 18.1146
394 1 -1.1104 12.6486 -3.59378 14.9961
398 1 -1.1104 12.6248 -0.91937 17.9079
399 2 2.2208 11.1021 -2.20595 19.3934
401 1 -1.1104 12.4568 -0.785229 15.2016
403 1 -1.1104 9.84279 -3.59367 17.9559
405 2 2.2208 8.35565 0.571615 19.4055
406 1 -1.1104 9.83926 -3.52879 15.1586
410 2 2.2208 8.38423 -2.19046 16.601
412 1 -1.1104 9.59961 -0.804672 17.9438
413 1 -1.1104 9.6312 -0.846102 15.1198
402 1 -1.1104 12.481 -0.826129 20.8245
328 2 2.2208 11.0864 8.94161 13.9048
316 2 2.2208 2.61532 0.769128 13.733
350 1 -1.1104 1.1866 1.95296 17.8964
355 1 -1.1104 1.12244 2.2815 15.2287
364 2 2.2208 5.51589 3.458 19.4879
370 1 -1.1104 3.9563 2.07598 17.9856
374 1 -1.1104 4.15315 1.92086 15.151
377 2 2.2208 2.6626 3.54161 16.5766
424 2 2.2208 5.46985 6.16415 16.791
426 1 -1.1104 1.08899 7.77648 18.0049
428 1 -1.1104 1.2657 7.81752 15.3406
432 1 -1.1104 1.40241 4.83021 18.0311
437 1 -1.1104 1.42062 4.95128 15.2159
445 1 -1.1104 3.98008 7.64231 18.0792
446 2 2.2208 2.7564 6.32774 19.4163
448 1 -1.1104 3.89918 7.53467 15.224
451 1 -1.1104 4.11634 4.77531 18.0253
453 1 -1.1104 4.19921 4.84017 15.2313
454 1 -1.1104 4.03506 4.85597 20.9241
434 1 -1.1104 6.8624 4.89229 17.9935
9439 2 2.2208 -0.265395 6.30107 16.5601
311 2 2.2208 -0.0216956 -2.03315 13.9347
9400 2 2.2208 -0.241455 0.669406 22.2958
9366 2 2.2208 -0.0189634 3.567 19.5751
438 1 -1.1104 1.30662 4.83046 21.031
382 2 2.2208 5.57776 -4.8529 16.8154
427 1 -1.1104 6.5644 7.57416 18.2714
430 1 -1.1104 6.89706 7.57812 15.4107
352 1 -1.1104 6.73691 1.86675 18.2207
359 1 -1.1104 6.70796 2.02559 15.4924
441 1 -1.1104 6.96237 4.88144 15.3012
393 1 -1.1104 12.4012 2.05374 17.8649
396 1 -1.1104 12.4868 1.86271 15.2258
400 2 2.2208 11.2787 3.29231 19.3128
404 1 -1.1104 9.57994 1.72267 18.0452
408 1 -1.1104 9.57462 1.82776 15.2103
411 2 2.2208 8.11541 3.35841 16.6311
460 2 2.2208 11.1445 6.10945 16.641
462 1 -1.1104 12.5238 7.47432 18.2123
463 1 -1.1104 12.4027 7.50645 15.1933
465 1 -1.1104 12.4994 4.64309 17.9262
468 1 -1.1104 12.4353 4.81063 15.1542
472 1 -1.1104 9.56323 7.47748 18.1371
473 2 2.2208 8.23933 6.26697 19.4722
475 1 -1.1104 9.81791 7.51996 15.4549
478 1 -1.1104 9.79075 4.70787 17.9474
480 1 -1.1104 9.71998 4.75542 15.0486
409 1 -1.1104 9.94505 2.16125 20.8033
464 1 -1.1104 12.3263 7.53959 20.9961
469 1 -1.1104 12.5025 4.67024 20.6667
586 2 2.2208 10.9229 14.7574 25.1258
481 1 -1.1104 9.52557 4.96132 20.8648
425 2 2.2208 5.48548 11.8727 16.5408
433 1 -1.1104 1.17819 10.5694 18.0142
436 2 2.2208 5.31426 9.12403 19.5541
439 1 -1.1104 1.21415 10.7194 15.2006
447 2 2.2208 2.54368 12.0176 19.2847
450 2 2.2208 2.57822 9.10283 16.6121
452 1 -1.1104 3.95217 10.2598 18.1557
455 1 -1.1104 4.02055 10.4202 15.2522
488 1 -1.1104 1.22379 13.4141 18.0396
492 1 -1.1104 1.32957 13.4594 15.3105
508 1 -1.1104 4.11971 13.3087 17.8697
511 1 -1.1104 3.93482 13.2115 15.2474
493 1 -1.1104 1.22259 13.2456 20.9525
9404 2 2.2208 -0.0874471 12.0151 16.5516
9438 2 2.2208 -0.0712267 8.94338 19.5448
456 1 -1.1104 3.92525 10.4691 20.8046
440 1 -1.1104 1.0239 10.3962 20.7927
512 1 -1.1104 4.09924 13.2245 20.7609
325 2 2.2208 5.21764 9.04728 13.7686
443 1 -1.1104 6.73433 10.3903 15.1181
496 1 -1.1104 6.85663 13.2743 15.3643
490 1 -1.1104 6.98593 13.3885 18.0916
435 1 -1.1104 6.99333 10.5688 17.815
461 2 2.2208 10.9727 11.8338 16.4888
466 1 -1.1104 12.5342 10.2719 17.8075
467 2 2.2208 11.0137 9.00507 19.4021
470 1 -1.1104 12.5258 10.3575 15.1384
474 2 2.2208 8.33792 11.7113 19.4208
477 2 2.2208 8.21318 8.93564 16.5552
479 1 -1.1104 9.7836 10.3424 17.9986
482 1 -1.1104 9.48913 10.2441 15.2425
483 1 -1.1104 9.64075 10.396 20.8454
524 1 -1.1104 12.582 13.2102 18.0681
526 1 -1.1104 12.4157 13.515 15.1176
535 1 -1.1104 9.71818 13.0627 17.9165
538 1 -1.1104 9.52742 12.8901 15.1212
527 1 -1.1104 12.4482 13.2285 20.8313
539 1 -1.1104 9.70196 13.2322 20.8189
471 1 -1.1104 12.3547 10.6858 20.8453
9510 2 2.2208 -0.152755 17.5616 16.5962
502 2 2.2208 5.4807 14.7201 19.3372
515 2 2.2208 2.78321 14.7603 16.5792
487 2 2.2208 5.38009 17.6917 16.7433
489 1 -1.1104 1.12169 18.9527 18.1889
494 1 -1.1104 1.28462 18.9741 15.1825
500 1 -1.1104 1.26701 15.9485 18.1681
503 2 2.2208 5.30347 20.3454 19.5552
504 1 -1.1104 1.26869 16.2006 15.3712
509 1 -1.1104 3.91368 18.985 17.8871
510 2 2.2208 2.50298 17.4715 19.5599
513 1 -1.1104 4.04738 18.9597 14.942
516 2 2.2208 2.64933 20.3504 16.5192
517 1 -1.1104 3.98848 16.263 17.993
518 1 -1.1104 4.10497 15.9882 15.0775
9508 2 2.2208 -0.248782 20.3372 19.3946
9509 2 2.2208 -0.310746 14.6033 19.3518
9279 2 2.2208 -0.285369 20.5244 13.7259
491 1 -1.1104 6.62191 19.1797 18.1122
507 1 -1.1104 6.81596 16.0042 20.7917
501 1 -1.1104 6.81528 16.1818 18.1247
498 1 -1.1104 6.78493 18.7368 15.2826
506 1 -1.1104 6.9241 15.9728 15.4261
531 2 2.2208 10.981 14.6351 19.4312
542 2 2.2208 8.24346 14.5149 16.7584
523 2 2.2208 11.0891 17.4853 16.6345
525 1 -1.1104 12.479 18.9327 18.0182
528 1 -1.1104 12.4128 18.7516 15.2118
530 1 -1.1104 12.3727 16.1537 18.0571
532 2 2.2208 11.1222 20.1862 19.5119
533 1 -1.1104 12.4763 16.1804 15.249
536 1 -1.1104 9.62294 18.6137 17.9841
537 2 2.2208 8.31032 17.5748 19.5093
540 1 -1.1104 9.43639 18.7368 15.2215
543 2 2.2208 8.14896 20.2698 16.6267
544 1 -1.1104 9.51274 15.9182 18.1817
545 1 -1.1104 9.71855 15.7883 15.3229
546 1 -1.1104 9.79359 16.056 20.7542
373 1 -1.1104 4.13769 -3.46596 20.9773
317 2 2.2208 5.42961 3.63915 13.8904
354 1 -1.1104 1.41286 -3.76377 20.9456
551 2 2.2208 5.51265 0.703217 22.2141
552 1 -1.1104 1.18708 -3.585 23.6883
556 1 -1.1104 1.19914 -3.68061 26.5599
560 1 -1.1104 1.49382 -0.746619 23.7818
562 2 2.2208 5.54247 -2.16351 25.1189
564 1 -1.1104 1.21912 -0.807086 26.5759
566 1 -1.1104 3.90565 -3.58158 23.7557
568 2 2.2208 2.70154 0.686058 25.2478
569 1 -1.1104 3.94798 -3.71587 26.4936
571 2 2.2208 2.70496 -2.09123 22.4107
573 1 -1.1104 4.40753 -0.775208 23.763
574 1 -1.1104 4.09156 -0.993826 26.5981
9401 2 2.2208 -0.0716848 -2.16151 25.0385
321 2 2.2208 8.28101 0.575807 13.7218
358 1 -1.1104 7.01125 -3.53894 20.7735
368 1 -1.1104 6.8973 -0.677373 20.8716
414 1 -1.1104 9.71319 -0.662775 20.8618
585 1 -1.1104 12.4556 16.0995 23.8408
332 2 2.2208 5.48519 14.6571 13.8987
561 1 -1.1104 7.09794 -0.789756 23.7648
554 1 -1.1104 6.8874 -3.70898 23.5838
407 1 -1.1104 9.86898 -3.40291 20.7758
395 1 -1.1104 12.6861 -3.46053 20.8049
558 1 -1.1104 6.90215 -3.66747 26.4469
565 1 -1.1104 6.72793 -0.98667 26.7134
587 2 2.2208 11.1583 0.639018 22.2329
588 1 -1.1104 12.5078 -3.4169 23.6322
590 1 -1.1104 12.585 -3.60974 26.4361
592 1 -1.1104 12.4643 -0.715319 23.6654
593 2 2.2208 11.0926 -2.22413 25.1396
595 1 -1.1104 12.5367 -0.876581 26.4831
596 1 -1.1104 9.69334 -3.43115 23.7112
598 2 2.2208 8.31112 0.748795 25.1959
599 1 -1.1104 9.65146 -3.51084 26.4989
601 2 2.2208 8.35814 -2.0629 22.3008
603 1 -1.1104 9.76895 -0.717931 23.6719
604 1 -1.1104 9.60268 -0.85574 26.7143
9396 2 2.2208 -0.243718 3.445 25.058
9617 2 2.2208 -0.0907463 6.19155 22.4317
429 1 -1.1104 1.36912 7.51564 20.9619
356 1 -1.1104 1.3013 1.99619 20.9124
375 1 -1.1104 4.15209 1.91465 20.765
553 1 -1.1104 1.07072 2.0688 23.7506
557 1 -1.1104 1.30125 2.05662 26.3399
563 2 2.2208 5.44371 3.54411 25.1006
567 1 -1.1104 4.0029 2.04369 23.6866
570 1 -1.1104 4.09862 1.97646 26.5551
572 2 2.2208 2.60289 3.46465 22.3918
449 1 -1.1104 3.9907 7.69603 20.986
616 2 2.2208 5.48276 6.35792 22.3927
620 1 -1.1104 1.27949 7.65505 26.6909
622 1 -1.1104 1.23369 4.98337 23.7775
627 1 -1.1104 1.15855 4.98907 26.466
632 2 2.2208 2.65526 6.24742 25.2
634 1 -1.1104 4.16858 7.54367 26.5696
636 1 -1.1104 4.03454 5.00267 23.7548
638 1 -1.1104 3.94326 4.73739 26.6454
631 1 -1.1104 3.97109 7.60487 23.905
618 1 -1.1104 1.26605 7.7418 23.6914
619 1 -1.1104 6.83273 7.5095 24.0221
548 1 -1.1104 6.59538 16.0187 26.4912
331 2 2.2208 5.38189 20.3322 13.8634
431 1 -1.1104 6.90535 7.54177 21.1004
397 1 -1.1104 12.6837 1.9319 20.8067
476 1 -1.1104 9.58837 7.67177 20.7972
559 1 -1.1104 7.0068 1.81701 26.4864
360 1 -1.1104 7.0672 2.18185 20.8665
442 1 -1.1104 6.89676 4.80819 20.9497
624 1 -1.1104 6.85507 4.82119 23.677
621 1 -1.1104 6.98667 7.55341 26.6768
629 1 -1.1104 6.95157 4.81039 26.6242
555 1 -1.1104 6.92073 2.0065 23.5398
589 1 -1.1104 12.5818 2.04065 23.5546
591 1 -1.1104 12.6221 1.86025 26.2743
594 2 2.2208 11.1162 3.38431 24.9604
597 1 -1.1104 9.79731 2.10651 23.6754
600 1 -1.1104 9.89642 2.01146 26.5348
602 2 2.2208 8.38599 3.40959 22.2089
641 1 -1.1104 12.5752 4.60489 26.3844
648 1 -1.1104 9.67757 4.84 26.5445
650 1 -1.1104 9.68216 4.81032 23.583
654 2 2.2208 8.3507 6.11795 24.989
655 2 2.2208 11.0204 6.18137 22.1399
657 1 -1.1104 12.5633 7.51436 23.6619
659 1 -1.1104 12.5695 4.78243 23.5011
658 1 -1.1104 12.6225 7.41174 26.4629
652 1 -1.1104 9.77357 7.50327 26.3718
607 1 -1.1104 9.80727 7.66732 23.5116
643 1 -1.1104 6.81815 18.9057 26.6309
9368 2 2.2208 -0.12983 9.16956 24.9042
419 1 -1.1104 6.75052 16.0158 23.7103
9367 2 2.2208 -0.127394 11.7634 22.1013
617 2 2.2208 5.43391 11.873 22.2634
623 1 -1.1104 1.41457 10.4764 23.6327
626 2 2.2208 5.30582 9.07138 24.9969
628 1 -1.1104 1.23441 10.4966 26.4867
633 2 2.2208 2.57466 11.849 25.1339
635 2 2.2208 2.68956 9.10204 22.2349
637 1 -1.1104 4.21786 10.5097 23.5418
639 1 -1.1104 3.96441 10.5252 26.4401
420 1 -1.1104 4.11701 13.3469 26.4907
458 1 -1.1104 1.32942 13.139 23.7321
521 1 -1.1104 1.53073 13.1992 26.5149
549 1 -1.1104 4.00869 13.2194 23.6077
497 1 -1.1104 6.90473 13.1242 20.9064
444 1 -1.1104 6.90503 10.471 20.7487
575 1 -1.1104 6.80303 13.154 26.4756
625 1 -1.1104 6.81808 10.3552 23.5077
484 1 -1.1104 6.7903 13.2692 23.7435
644 1 -1.1104 9.66325 13.2762 26.6112
613 1 -1.1104 9.55378 13.3494 23.6724
578 1 -1.1104 12.3136 13.3589 23.6547
630 1 -1.1104 6.64262 10.3978 26.3363
583 1 -1.1104 12.4384 13.1541 26.3945
640 1 -1.1104 12.5162 10.3057 26.4986
642 2 2.2208 11.0988 8.86869 24.9892
647 1 -1.1104 9.48919 10.4285 26.3623
649 1 -1.1104 9.62886 10.5331 23.5821
651 2 2.2208 8.25824 8.97958 22.2858
653 2 2.2208 8.27654 11.8071 25.1347
656 2 2.2208 11.0787 11.8692 22.2721
660 1 -1.1104 12.4378 10.3671 23.6075
387 2 2.2208 2.88658 -4.83434 13.7431
9324 2 2.2208 -0.314535 17.5516 22.1457
9325 2 2.2208 -0.0786771 14.6558 25.0289
519 1 -1.1104 3.94288 16.0125 20.7295
495 1 -1.1104 1.13295 19.1456 20.9573
505 1 -1.1104 1.04008 16.0476 20.802
514 1 -1.1104 4.10543 18.8397 20.7379
499 1 -1.1104 6.71833 18.835 21.1271
485 2 2.2208 5.27045 14.6135 24.9379
388 2 2.2208 2.65363 14.5931 22.1708
389 2 2.2208 2.59582 20.1945 22.3406
547 1 -1.1104 1.26351 19.0982 26.6274
390 1 -1.1104 3.8777 16.1161 23.4805
423 1 -1.1104 3.97955 18.8094 26.506
422 2 2.2208 2.66045 17.5479 25.0159
421 1 -1.1104 4.12083 16.1308 26.4097
415 1 -1.1104 1.16572 16.0755 23.6023
457 2 2.2208 5.31696 17.5445 22.2522
459 1 -1.1104 1.15094 18.9422 23.6939
486 2 2.2208 5.35218 20.2311 25.1439
522 1 -1.1104 1.1803 16.1378 26.3466
576 1 -1.1104 4.14326 18.8374 23.714
606 2 2.2208 8.11706 20.2415 22.4007
577 1 -1.1104 9.477 16.0101 26.5639
584 1 -1.1104 12.3988 18.8755 26.3965
645 1 -1.1104 9.59107 19.0064 26.5826
529 1 -1.1104 12.5234 18.9688 20.9013
541 1 -1.1104 9.86534 18.829 20.8702
646 2 2.2208 8.13894 14.6483 22.3383
614 1 -1.1104 9.60337 18.7739 23.5025
605 1 -1.1104 9.57395 16.0997 23.6477
608 2 2.2208 11.101 20.2415 25.132
615 2 2.2208 8.26408 17.5672 25.2247
534 1 -1.1104 12.3928 16.117 20.771
520 1 -1.1104 6.84341 18.8423 23.8877
612 1 -1.1104 12.1821 16.1138 26.5132
579 1 -1.1104 12.4498 18.8271 23.7311
550 2 2.2208 11.0629 17.4945 22.2978
9268 2 2.2208 -0.24414 9.2435 13.7454
335 2 2.2208 8.03517 17.457 13.8177
9278 2 2.2208 -0.141665 14.7655 13.8063
333 2 2.2208 10.9381 20.0878 13.8667
383 2 2.2208 2.77709 -4.88427 19.4284
610 2 2.2208 11.0821 -4.80553 22.2316
327 2 2.2208 8.3291 6.24343 13.8918
329 2 2.2208 8.30523 11.6037 13.8215
330 2 2.2208 2.71897 17.2944 13.7641
326 2 2.2208 2.52716 11.8679 13.7745
324 2 2.2208 2.63916 6.35027 13.8679
9256 2 2.2208 -0.310738 3.54198 13.7412
661 2 2.2208 5.31701 23.0629 5.37978
663 1 -1.1104 1.0293 24.3806 1.3228
664 1 -1.1104 1.01751 24.4834 3.85537
665 1 -1.1104 1.16407 21.6762 1.09653
667 2 2.2208 5.54625 25.8807 2.48509
668 1 -1.1104 1.20427 21.4832 4.0965
670 1 -1.1104 4.04501 24.4521 1.11738
671 2 2.2208 2.55433 22.9563 2.51342
673 1 -1.1104 4.14025 24.3939 3.91814
674 2 2.2208 2.62613 25.828 5.26744
677 1 -1.1104 3.86769 21.6483 3.9029
675 1 -1.1104 4.08927 21.6736 1.07467
666 1 -1.1104 1.22381 27.3358 1.04611
669 1 -1.1104 1.42141 27.2594 3.87482
678 1 -1.1104 4.07246 27.3487 3.92139
810 1 -1.1104 3.87298 27.3014 6.63218
802 1 -1.1104 1.28681 24.5304 6.63375
676 1 -1.1104 3.98948 27.3023 1.20043
805 1 -1.1104 1.19268 27.2216 6.6657
808 1 -1.1104 4.13266 24.5433 6.71563
809 1 -1.1104 3.92769 21.6978 6.7626
680 2 2.2208 -0.273843 23.0004 5.43354
681 2 2.2208 -0.200053 26.0098 2.65282
9963 2 2.2208 -0.356449 39.9167 5.19396
684 1 -1.1104 6.93498 21.7085 1.32182
685 1 -1.1104 6.85362 27.3477 1.06013
683 1 -1.1104 7.05789 24.494 4.05855
686 1 -1.1104 6.93148 21.8088 4.06995
803 1 -1.1104 6.80374 24.4421 6.88253
682 1 -1.1104 6.75652 24.3431 1.13264
687 1 -1.1104 6.96935 27.3528 4.09525
688 2 2.2208 11.0681 23.1412 5.4734
690 1 -1.1104 12.1959 24.6479 1.11951
691 1 -1.1104 12.4473 24.442 3.90016
692 1 -1.1104 12.5346 21.7064 1.14884
694 2 2.2208 11.014 25.9112 2.63614
695 1 -1.1104 12.6074 21.7263 4.12893
697 1 -1.1104 9.46083 24.6487 1.2234
698 2 2.2208 8.39394 23.0564 2.5384
700 1 -1.1104 9.66885 24.382 3.98056
701 2 2.2208 8.3763 25.9118 5.48445
702 1 -1.1104 9.86358 21.6963 1.02653
704 1 -1.1104 9.85203 21.7635 3.90544
836 1 -1.1104 12.5635 21.9558 6.9728
696 1 -1.1104 12.2613 27.3113 3.85077
705 1 -1.1104 9.7192 27.2244 4.01427
693 1 -1.1104 12.5348 27.486 1.15236
835 1 -1.1104 12.5764 24.6899 6.79868
703 1 -1.1104 9.68691 27.3453 1.13592
840 1 -1.1104 9.57614 27.3647 6.69138
1536 1 -1.1104 9.37412 46.9307 6.79882
662 2 2.2208 5.28687 28.6228 5.34988
672 2 2.2208 2.71763 28.8026 2.55564
710 1 -1.1104 1.19459 30.1093 1.09677
713 1 -1.1104 1.05119 30.0876 3.8753
716 1 -1.1104 1.266 32.916 1.05451
717 2 2.2208 5.14251 31.4923 2.47365
719 1 -1.1104 1.1782 32.7951 4.11545
721 1 -1.1104 3.94016 30.005 0.955902
724 1 -1.1104 3.85561 30.3535 4.01642
726 2 2.2208 2.60758 31.662 5.4609
728 1 -1.1104 3.98049 32.8219 1.03399
729 1 -1.1104 4.18238 33.2244 3.84981
865 1 -1.1104 3.99411 30.0609 6.61621
867 1 -1.1104 3.84287 33.0259 6.82418
864 1 -1.1104 6.72548 33.0794 6.86238
991 2 2.2208 5.43062 28.776 -0.403756
9912 2 2.2208 13.6174 39.9312 8.05357
733 1 -1.1104 6.64816 30.0846 1.10344
720 1 -1.1104 6.95102 32.9577 4.0335
734 1 -1.1104 6.54626 30.1427 3.80735
735 1 -1.1104 6.77905 32.9 1.0411
689 2 2.2208 10.9379 28.8313 5.39133
699 2 2.2208 8.2011 28.6651 2.60238
861 1 -1.1104 6.74064 30.1016 6.5786
737 1 -1.1104 12.2135 30.4386 0.993384
739 1 -1.1104 12.3628 30.2966 4.00725
741 1 -1.1104 12.4332 33.0933 1.18485
742 2 2.2208 10.945 31.567 2.48957
744 1 -1.1104 12.3748 32.9817 3.73366
745 1 -1.1104 9.51643 30.0014 1.40826
748 1 -1.1104 9.59381 30.1531 4.24909
750 2 2.2208 7.99856 31.628 5.4965
752 1 -1.1104 9.62747 32.8942 0.75768
753 1 -1.1104 9.73856 33.0425 3.66593
896 1 -1.1104 9.47713 30.2472 6.84966
895 1 -1.1104 12.5388 33.0112 6.50008
898 1 -1.1104 9.53684 32.9309 6.51578
893 1 -1.1104 12.3362 30.2358 6.75946
709 2 2.2208 5.31696 34.5113 5.41937
711 1 -1.1104 1.0353 35.6119 1.21747
714 1 -1.1104 1.24152 35.5801 4.01986
718 2 2.2208 5.49722 37.1492 2.48969
722 1 -1.1104 3.88457 35.6816 1.11463
723 2 2.2208 2.52257 34.3511 2.57928
725 1 -1.1104 3.88429 35.9434 3.77567
727 2 2.2208 2.52741 37.2757 5.11615
761 1 -1.1104 1.2198 38.473 1.24459
775 1 -1.1104 3.89129 38.6014 0.937133