LAMMPS data file via write_data, version 29 Oct 2020, timestep = 100105

17700 atoms
3 atom types

-0.43974399960391775 27.77974399960386 xlo xhi
-5.117771573345975 333.19777157334244 ylo yhi
-0.4504577371494395 27.790457737148966 zlo zhi

Masses

1 15.9994
2 232.0381
3 131.293

Atoms # full

1 0 2 2.2208 5.576946272707679 1.0796413881445381 5.009644176590017 0 0 0
2 0 1 -1.1104 1.1583455578361521 -3.5187912007651914 0.9486037144087641 0 0 0
6 0 1 -1.1104 0.9987920155972189 -3.381306878070774 3.689291051010328 0 0 0
10 0 1 -1.1104 0.9291524820788298 -0.7491265514390427 0.8541439961896125 0 0 0
12 0 2 2.2208 5.541163612062137 -1.990076181118477 2.3375647519610214 0 0 0
14 0 1 -1.1104 1.2957209452845082 -0.6799961405679751 3.6078675576467134 0 0 0
16 0 1 -1.1104 3.982246171483174 -3.481282928826559 1.0498981603819382 0 0 0
18 0 2 2.2208 2.6958433030241866 0.9273785499976207 2.354915772319398 0 0 0
19 0 1 -1.1104 4.166493350954347 -3.6130404122573694 3.7430902109433366 0 0 0
21 0 2 2.2208 2.681703169553049 -2.0190127489306806 5.29503266668175 0 0 0
23 0 1 -1.1104 4.111733573635323 -0.6550998104362888 0.978324738602719 0 0 0
24 0 1 -1.1104 4.118474538624067 -0.47125113041323835 3.857259961545521 0 0 0
174 0 1 -1.1104 3.9642628726621933 -0.6643933487890653 6.538896790755973 0 0 0
170 0 1 -1.1104 1.1703976833761898 -0.7851793242926455 6.586353548221477 0 0 0
28 0 2 2.2208 2.531755732110142 -4.870406428204078 2.388243066418474 0 0 0
29 0 2 2.2208 5.3611420014194335 -4.938979115715548 4.927396112007538 0 0 0
588 0 2 2.2208 -0.16529742569418576 -4.904139625117978 -0.39724408802232347 0 0 0
30 0 2 2.2208 -0.1208603434428279 -4.921284426712903 5.123264263620009 0 0 0
172 0 1 -1.1104 4.182961834438963 -3.3663501532211386 6.420257022014872 0 0 0
149 0 1 -1.1104 12.237230595236348 16.240091096010246 6.465414533644245 0 0 0
25 0 2 2.2208 -0.4064807127660949 -1.9801187484356126 2.2659853866384236 0 0 0
26 0 2 2.2208 -0.1794500874823821 0.7724027691154006 5.115545622681826 0 0 0
199 0 1 -1.1104 9.571938277733802 19.196926714894794 12.30188169553305 0 0 0
312 0 1 -1.1104 9.638098358281699 19.025759926109473 9.41447156490604 0 0 0
15 0 1 -1.1104 6.872472476713545 -0.5719808292038361 3.7213178962791233 0 0 0
8 0 1 -1.1104 6.860427315130858 -3.423621627357784 3.6675568778974226 0 0 0
11 0 1 -1.1104 6.74564349289666 -0.6146201431324417 0.9551437823648571 0 0 0
171 0 1 -1.1104 6.8964860735742315 -0.5343299047178587 6.489169171444976 0 0 0
4 0 1 -1.1104 6.812379723402116 -3.322748114846932 0.7112766234750701 0 0 0
31 0 2 2.2208 11.044082059663163 0.7023143758908935 4.941719236578376 0 0 0
32 0 1 -1.1104 12.60138469559404 -3.5108515810107446 1.0109385030051588 0 0 0
34 0 1 -1.1104 12.379097489812692 -3.503584481384944 3.7972683183367932 0 0 0
36 0 1 -1.1104 12.431596938684228 -0.6279454433427095 0.9053045147417602 0 0 0
37 0 2 2.2208 10.975089057093886 -2.2501822186237774 2.4543472809470304 0 0 0
39 0 1 -1.1104 12.335973688837504 -0.7180898438945904 3.5181198427861253 0 0 0
40 0 1 -1.1104 9.607312461217022 -3.479758831475388 0.7053737881955278 0 0 0
42 0 2 2.2208 8.378921811342138 0.7830479176770714 2.200224727884037 0 0 0
43 0 1 -1.1104 9.633259368012043 -3.3696505373774377 3.7990485877620364 0 0 0
45 0 2 2.2208 8.209605222330262 -2.068246050747962 5.106803109927053 0 0 0
47 0 1 -1.1104 9.5731423195177 -0.8421889187764314 0.9400582344184151 0 0 0
48 0 1 -1.1104 9.637915652215739 -0.8199711913224179 3.6705430284694534 0 0 0
210 0 1 -1.1104 9.683907748616171 -0.9347122449931103 6.453582954384404 0 0 0
51 0 2 2.2208 8.2063844418518 -5.006988042903625 2.3255233654837633 0 0 0
52 0 2 2.2208 10.948119187864771 -4.831051329377169 5.165172970946955 0 0 0
205 0 1 -1.1104 12.370584896400235 -3.7300377194346472 6.453811089999804 0 0 0
208 0 1 -1.1104 9.47612091814267 -3.705287458452665 6.509260657431345 0 0 0
353 0 2 2.2208 2.441002579478048 9.200641501901371 -0.36318368148636276 0 0 0
3 0 1 -1.1104 1.0951037659608793 2.279341323803931 0.8373094390709658 0 0 0
7 0 1 -1.1104 1.2611752954829478 2.150611503108212 3.9991052596704373 0 0 0
13 0 2 2.2208 5.53700104524937 3.531059951442212 2.248822223882489 0 0 0
17 0 1 -1.1104 3.8990859907712982 2.155220466274593 1.065856737980047 0 0 0
20 0 1 -1.1104 4.050627568218688 2.1755649158016346 3.747579542905979 0 0 0
22 0 2 2.2208 2.53217100292069 3.6137471834958377 5.357786718269505 0 0 0
54 0 2 2.2208 5.4143106146014945 6.2948289190063855 5.089239463370362 0 0 0
58 0 1 -1.1104 1.2246955996446514 7.641388634427282 3.8113307432315557 0 0 0
60 0 1 -1.1104 1.2284450422738213 5.1997616478025925 0.5674184665113929 0 0 0
67 0 1 -1.1104 1.1937751007678163 4.977410608172449 3.8797487782892284 0 0 0
72 0 2 2.2208 2.61069484253891 6.4844491628181 2.230283617045123 0 0 0
76 0 1 -1.1104 3.842830089123178 4.9501777008381 1.1108753339906712 0 0 0
79 0 1 -1.1104 4.123428930643749 4.93063464181779 3.754283879419177 0 0 0
74 0 1 -1.1104 3.933494906430131 7.83804556445478 3.5267142395579443 0 0 0
56 0 1 -1.1104 1.1071753241217372 7.827834145750789 0.9520851952539867 0 0 0
71 0 1 -1.1104 3.8981784889212046 7.873227505588383 0.7402597074654816 0 0 0
82 0 1 -1.1104 12.42507345915875 19.067890297768898 12.339619570496227 0 0 0
173 0 1 -1.1104 3.9178414082424866 2.161534843289154 6.6152533700180545 0 0 0
239 0 1 -1.1104 4.044124033379819 4.984211216759412 6.508161108172481 0 0 0
236 0 1 -1.1104 1.303189151667243 4.822750410496193 6.839529044120598 0 0 0
234 0 1 -1.1104 1.1928154909689952 7.419729885600213 6.662221183742507 0 0 0
315 0 1 -1.1104 9.59595348783394 16.039168239705244 12.271178545213585 0 0 0
9152 0 2 2.2208 -0.23092880514622996 6.327322911429149 5.198384234683268 0 0 0
9149 0 2 2.2208 -0.29108247917177604 3.648111374425597 2.4282261864200616 0 0 0
59 0 1 -1.1104 6.954190587394558 7.76211133686079 3.613115649575132 0 0 0
9 0 1 -1.1104 6.828201719982069 2.1172828745382564 3.482570213677293 0 0 0
69 0 1 -1.1104 6.907633505195121 4.918998543832164 3.6754760211420914 0 0 0
235 0 1 -1.1104 7.111456623940454 7.850970991176413 6.309566930636484 0 0 0
5 0 1 -1.1104 6.765646413160562 2.218367127370221 0.7165552701098892 0 0 0
237 0 1 -1.1104 6.987008818938827 5.055072522996068 6.548124746272045 0 0 0
63 0 1 -1.1104 6.715967807197582 4.9369816802791116 0.9843500113800678 0 0 0
33 0 1 -1.1104 12.401345469915942 2.094134730968749 1.168827083769217 0 0 0
35 0 1 -1.1104 12.58846738101145 2.0761422599050716 3.717955867756268 0 0 0
38 0 2 2.2208 11.02082711509048 3.6327809421149597 2.4423678562125515 0 0 0
41 0 1 -1.1104 9.770213810707423 2.3372967714656343 0.7954781808306889 0 0 0
44 0 1 -1.1104 9.724816089325891 2.071104063476433 3.621663914280274 0 0 0
46 0 2 2.2208 8.39838957113222 3.5915951215941773 5.030734811693167 0 0 0
84 0 2 2.2208 11.216466858956466 6.373180368113844 5.287092247065607 0 0 0
88 0 1 -1.1104 12.694345010408806 4.737871205145664 0.8457402764181107 0 0 0
92 0 1 -1.1104 12.56941733464828 4.796034709993979 3.8515704144219844 0 0 0
95 0 2 2.2208 8.287566135965596 6.288853197880368 2.274685255985058 0 0 0
99 0 1 -1.1104 9.527181059549434 4.980467905579859 0.8579949988709371 0 0 0
102 0 1 -1.1104 9.643272807869383 4.955961886384976 3.69430686511376 0 0 0
94 0 1 -1.1104 9.722592877938595 7.703057611847598 1.048324858311246 0 0 0
97 0 1 -1.1104 9.82515364829067 7.768488489319034 3.9029384205276916 0 0 0
87 0 1 -1.1104 12.559219706172634 7.508691037413669 3.6727044439997782 0 0 0
86 0 1 -1.1104 12.512968918684896 7.742047584291189 0.8144306511744357 0 0 0
169 0 1 -1.1104 6.988881557430395 2.2268622562399267 6.55967269935439 0 0 0
57 0 1 -1.1104 6.929869264614215 7.598752225595764 0.8279955743309773 0 0 0
267 0 1 -1.1104 9.62735027015533 7.7580088547484465 6.599377529855851 0 0 0
346 0 2 2.2208 11.056268954070628 0.8137621208116343 -0.29243147357020954 0 0 0
55 0 2 2.2208 5.34377919449777 12.048511876071858 5.159991639707093 0 0 0
61 0 1 -1.1104 1.1695452371868502 10.649629656852838 1.1059224245138142 0 0 0
66 0 2 2.2208 5.450541574920886 9.128613357457338 2.2546113475316343 0 0 0
68 0 1 -1.1104 1.0904964928350216 10.647078823716361 3.7099779327417135 0 0 0
73 0 2 2.2208 2.6992024817710756 11.897474550438023 2.413068751797365 0 0 0
75 0 2 2.2208 2.54523556732846 9.262855691739473 5.14007376003094 0 0 0
77 0 1 -1.1104 4.028937422137887 10.742227303254625 1.0699773853359924 0 0 0
80 0 1 -1.1104 4.143565817295539 10.485121460963743 3.9076208419477227 0 0 0
107 0 1 -1.1104 1.3183277207289574 13.472331021380564 0.9617605287456048 0 0 0
113 0 1 -1.1104 1.1260368723030256 13.15965414620977 3.711821917632824 0 0 0
123 0 1 -1.1104 4.275072598183152 13.546878687061923 0.9847467025283779 0 0 0
128 0 1 -1.1104 3.9608085263029897 13.44587068352906 3.796948293916713 0 0 0
108 0 1 -1.1104 1.1004288859748241 13.435728659790302 6.497583641937297 0 0 0
110 0 1 -1.1104 6.843009725040514 13.44937208488909 0.8583063936115936 0 0 0
78 0 1 -1.1104 3.8902243077377214 10.63926721520442 6.575766332711204 0 0 0
9154 0 2 2.2208 -0.2330754170991482 11.927552526340744 5.098939626338371 0 0 0
9153 0 2 2.2208 -0.37375012849278855 9.161513170326765 2.3606741020896553 0 0 0
9176 0 2 2.2208 -0.25850506312466354 12.228016373275366 -0.2884025277830392 0 0 0
64 0 1 -1.1104 7.109489597523409 10.36884621211057 0.7852689450910015 0 0 0
70 0 1 -1.1104 6.977407691321442 10.640267036768597 3.6792674335517703 0 0 0
115 0 1 -1.1104 6.705356093265346 13.424617945716898 3.8919537168944847 0 0 0
85 0 2 2.2208 11.1570126711189 12.159032023906784 5.234916712251618 0 0 0
89 0 1 -1.1104 12.356823767967459 10.68332497698615 0.7283344770986406 0 0 0
91 0 2 2.2208 11.158918342083254 9.12762200562296 2.0949043890898733 0 0 0
93 0 1 -1.1104 12.529484603708534 10.493899574647026 3.6091106565908597 0 0 0
96 0 2 2.2208 8.286669727016445 12.03581003909477 2.384353962564329 0 0 0
98 0 2 2.2208 8.308011977037149 9.193419556904185 5.1209714206470505 0 0 0
100 0 1 -1.1104 9.653290337982998 10.437694182651741 0.9777993643751741 0 0 0
103 0 1 -1.1104 9.788563598964986 10.835987225268093 3.773640846907146 0 0 0
142 0 1 -1.1104 12.31066422009344 13.421596795547797 1.0801780735255258 0 0 0
146 0 1 -1.1104 12.522581377100723 13.363890665672976 3.6842738621045035 0 0 0
153 0 1 -1.1104 9.838173674754197 13.44368612355076 0.9617150983393752 0 0 0
158 0 1 -1.1104 9.720144075725779 13.516269218689962 3.7593277743325557 0 0 0
143 0 1 -1.1104 12.582654811840452 13.537962667708124 6.6784001867045495 0 0 0
9157 0 2 2.2208 -0.16926400502564684 14.939178532498255 2.3357859983563576 0 0 0
119 0 2 2.2208 5.550873205327503 14.733333626591413 2.3239119560697734 0 0 0
130 0 2 2.2208 2.526418547359677 14.814242715535169 5.071222707793103 0 0 0
106 0 2 2.2208 5.394924446681062 17.560981072447074 5.379948352185369 0 0 0
109 0 1 -1.1104 0.9092867894498259 19.015594397890233 1.0637434377451445 0 0 0
114 0 1 -1.1104 1.0704153093134425 18.868282512101988 3.8115722833297387 0 0 0
116 0 1 -1.1104 1.2000665734640383 16.244336332038916 0.9144723423127574 0 0 0
120 0 2 2.2208 5.268637080538905 20.551215851648088 2.5841445261998004 0 0 0
121 0 1 -1.1104 1.272212086922946 16.163251345750272 3.7245504511311682 0 0 0
125 0 1 -1.1104 3.7288087174200917 18.906803069037032 0.8468837565132483 0 0 0
127 0 2 2.2208 2.4850734077331844 17.68770109708032 2.3037573846074006 0 0 0
129 0 1 -1.1104 4.111903615398683 18.987158962996087 3.902975439472731 0 0 0
131 0 2 2.2208 2.5045991306729545 20.25026759543684 5.342443329433566 0 0 0
132 0 1 -1.1104 3.870962881606832 16.225404662710066 0.7841976087247703 0 0 0
134 0 1 -1.1104 4.0223663419246325 16.135079660476585 3.5726334322669073 0 0 0
133 0 1 -1.1104 4.002611271800973 16.199232162791258 6.704511545438432 0 0 0
112 0 1 -1.1104 6.7166891193785565 18.880373730540203 6.729236916574911 0 0 0
302 0 1 -1.1104 1.489400105989616 18.921300088031064 6.860293817642721 0 0 0
9159 0 2 2.2208 -0.35534189795500376 17.60229881817491 5.145111772218978 0 0 0
619 0 2 2.2208 11.195849046447126 -4.9285236356996585 -0.3748776760235815 0 0 0
9158 0 2 2.2208 -0.33777428379013885 20.535062623354136 2.254773188047754 0 0 0
9168 0 2 2.2208 -0.1898369196760562 17.61492680071701 -0.4451989500027756 0 0 0
140 0 1 -1.1104 6.68644030338585 16.426104109804125 0.9157866177024909 0 0 0
139 0 1 -1.1104 6.742836612944574 18.87571237143706 3.841055808667908 0 0 0
122 0 1 -1.1104 6.832602412896942 16.080846818545535 3.6359807589404887 0 0 0
138 0 1 -1.1104 6.5665570800896695 19.203318811114098 0.8855885249198676 0 0 0
160 0 2 2.2208 8.218036364900323 14.84717570456066 5.188960605122298 0 0 0
150 0 2 2.2208 11.04454803991231 14.889616770968304 2.364061806420297 0 0 0
141 0 2 2.2208 10.891695649635873 17.580950032188895 5.147516790130287 0 0 0
144 0 1 -1.1104 12.353834764481832 18.909452510345442 0.9106829902210681 0 0 0
147 0 1 -1.1104 12.447035969237607 18.86593538949733 3.587447810290624 0 0 0
148 0 1 -1.1104 12.298414395902943 16.21546141009303 0.8833241568416144 0 0 0
151 0 2 2.2208 10.971108883169075 20.324490598054517 2.492322574678208 0 0 0
152 0 1 -1.1104 12.401923443733155 16.375816011280158 3.791058567970206 0 0 0
155 0 1 -1.1104 9.482183824198179 19.101244579462147 0.986592888962927 0 0 0
157 0 2 2.2208 8.068793150197884 17.680700794285908 2.176216178053967 0 0 0
159 0 1 -1.1104 9.548749706519812 19.005828368056253 3.7446168937390554 0 0 0
161 0 2 2.2208 8.192091505191197 20.361537588390032 5.190504773957849 0 0 0
162 0 1 -1.1104 9.366051090058328 16.324078723607386 0.6752711260807679 0 0 0
164 0 1 -1.1104 9.577253423343834 16.11108839427102 3.6078060083433523 0 0 0
163 0 1 -1.1104 9.457543565921243 16.163593094583387 6.721577324468991 0 0 0
204 0 2 2.2208 -0.2980183835890619 -4.977410575115997 10.74537763697575 0 0 0
202 0 2 2.2208 2.564214220583957 -5.014242234579935 7.9939934884087345 0 0 0
200 0 2 2.2208 -0.33791089519077383 -1.8927450320417085 8.061627150133923 0 0 0
166 0 1 -1.1104 1.2287672688626596 -3.652302944372031 6.429611716805114 0 0 0
175 0 2 2.2208 5.320939897255016 0.6447001173418524 10.848238277783631 0 0 0
176 0 1 -1.1104 1.140974193385991 -3.608175086015657 12.104100757971931 0 0 0
180 0 1 -1.1104 1.2018229260390687 -3.7103140497363083 9.37056136603597 0 0 0
184 0 1 -1.1104 1.139437562634207 -0.6238033583222057 12.394996589265862 0 0 0
186 0 2 2.2208 5.4346186674029795 -2.040341683524645 7.797856011496222 0 0 0
188 0 1 -1.1104 1.173218419487296 -0.7918239070008859 9.684256593489001 0 0 0
190 0 1 -1.1104 4.080350799448586 -3.6459149353960787 12.239243926757364 0 0 0
192 0 2 2.2208 2.6649833982353486 0.7413131070084745 8.021093030988391 0 0 0
193 0 1 -1.1104 3.865020571665577 -3.5107160841247005 9.248312112078375 0 0 0
195 0 2 2.2208 2.6520027861230493 -2.3120291933785335 10.77312608801947 0 0 0
197 0 1 -1.1104 3.941179226529615 -0.7388285779800782 12.289859599079252 0 0 0
198 0 1 -1.1104 4.156138136639159 -0.6970985596069079 9.362071387240453 0 0 0
203 0 2 2.2208 5.227729531322612 -5.017475079870907 10.78977853407797 0 0 0
201 0 2 2.2208 -0.36581334197538173 0.6319919519478145 10.889351542251172 0 0 0
320 0 2 2.2208 2.645792151517323 0.8956346791574329 13.61265694295673 0 0 0
428 0 2 2.2208 8.19468151900664 -4.87782735177196 13.475944786247599 0 0 0
231 0 2 2.2208 7.972329602769399 -4.96842582174763 7.991353731029751 0 0 0
232 0 2 2.2208 11.01569709560709 -4.855176676436204 10.846751517544233 0 0 0
189 0 1 -1.1104 6.905945880423255 -0.5650074048790963 9.26164698777581 0 0 0
178 0 1 -1.1104 6.7538803519172355 -3.5955334519146267 12.126728141677848 0 0 0
185 0 1 -1.1104 6.772093981112465 -0.7890356952511427 12.103620469415196 0 0 0
168 0 1 -1.1104 6.793343264217014 -3.4727154206660353 6.677179062505235 0 0 0
182 0 1 -1.1104 6.553238458686497 -3.228494318947189 9.475367636948599 0 0 0
207 0 1 -1.1104 12.491220279821183 -0.6493499172205913 6.570495250530774 0 0 0
211 0 2 2.2208 11.222343882427884 0.7935811165651419 10.937894408132337 0 0 0
212 0 1 -1.1104 12.321434799852405 -3.3553696428756403 12.175960817648766 0 0 0
214 0 1 -1.1104 12.335667743164278 -3.344075400950989 9.29670390402549 0 0 0
216 0 1 -1.1104 12.609627939682838 -0.7063871114599183 12.180481254474074 0 0 0
217 0 2 2.2208 10.891345936985426 -1.9797432850468202 7.883917049867033 0 0 0
219 0 1 -1.1104 12.449562422002447 -0.7136090830086055 9.27520549420502 0 0 0
220 0 1 -1.1104 9.442434512925265 -3.5960023028805135 11.97407314910555 0 0 0
222 0 2 2.2208 8.278761202870923 0.8080341688249026 7.88221689641393 0 0 0
223 0 1 -1.1104 9.472329020928253 -3.355366566604817 9.306637991403893 0 0 0
225 0 2 2.2208 8.28927533110586 -2.0069221091289675 10.498437478779021 0 0 0
227 0 1 -1.1104 9.534395047089623 -0.8809897673460951 12.467392051015098 0 0 0
228 0 1 -1.1104 9.795624179226643 -0.5345726590396358 9.46821058222205 0 0 0
135 0 2 2.2208 11.07047113479147 14.9152918544655 8.041353126564807 0 0 0
322 0 2 2.2208 8.156567928349462 0.820005036541373 13.66561303134991 0 0 0
167 0 1 -1.1104 1.1442112699360971 2.1643967448219668 6.669757410679581 0 0 0
9161 0 2 2.2208 -0.16573713563618006 3.516868388351621 8.015924594339008 0 0 0
238 0 1 -1.1104 4.062836088403606 7.705633839014036 6.4875615117500605 0 0 0
177 0 1 -1.1104 1.2627607901606366 2.298512740602734 12.154090316888725 0 0 0
181 0 1 -1.1104 1.1228816584401542 2.0537954189915864 9.4677811734252 0 0 0
187 0 2 2.2208 5.449022273860458 3.4835095884965317 8.075123130435603 0 0 0
191 0 1 -1.1104 4.145297710929917 2.2756876158827066 11.99693208337761 0 0 0
194 0 1 -1.1104 4.019953291361638 2.0960578290823304 9.37439001477654 0 0 0
196 0 2 2.2208 2.4946794346756493 3.557390773282478 10.762113759649795 0 0 0
240 0 2 2.2208 5.542767738376049 6.351992889836295 10.760358140502252 0 0 0
246 0 1 -1.1104 1.096181736447024 5.099532985527925 12.166789297548819 0 0 0
251 0 1 -1.1104 1.2761324617849994 5.081449972827233 9.41147822909019 0 0 0
256 0 2 2.2208 2.672040954549578 6.318977270684449 8.122819436514257 0 0 0
260 0 1 -1.1104 3.8846058004315647 4.881279928002069 12.00484649436106 0 0 0
262 0 1 -1.1104 4.050391577101487 4.881311688813028 9.265349462248023 0 0 0
244 0 1 -1.1104 1.2002884880876863 7.738349965179199 9.684195078999613 0 0 0
255 0 1 -1.1104 4.116062901820443 7.644770460531935 12.083547839033894 0 0 0
258 0 1 -1.1104 3.9899838717349323 7.753298214751142 9.252369106765439 0 0 0
242 0 1 -1.1104 1.3209562997409035 7.807168119638972 12.438433856919696 0 0 0
9080 0 2 2.2208 -0.2479688974846083 6.36417598238643 10.80700653203251 0 0 0
325 0 2 2.2208 2.612531928785159 6.30369306023179 13.60146342329421 0 0 0
209 0 1 -1.1104 9.536745270187403 1.8617696836258992 6.119316403634378 0 0 0
266 0 1 -1.1104 12.590930434749156 4.953030245262978 6.708107006580785 0 0 0
206 0 1 -1.1104 12.477756280970134 2.107072234525807 6.510638502876503 0 0 0
179 0 1 -1.1104 6.875274390166049 2.2975770736159618 12.198813300493542 0 0 0
183 0 1 -1.1104 6.830026323462954 2.0257088337519424 9.430332807866929 0 0 0
245 0 1 -1.1104 6.6848533286584315 7.6926728592017986 9.23910476313449 0 0 0
243 0 1 -1.1104 6.929391431268463 7.838285407363051 12.137194323261918 0 0 0
253 0 1 -1.1104 6.951529330028999 4.949377668983114 9.305530958892898 0 0 0
248 0 1 -1.1104 6.885775460757964 5.261983125995815 12.222977994356443 0 0 0
265 0 1 -1.1104 12.555501705855043 7.813378000894359 6.684467214465788 0 0 0
269 0 1 -1.1104 9.89136791776689 4.812691083940676 6.352277568910006 0 0 0
213 0 1 -1.1104 12.457653048125422 2.1128684942694114 12.321555389412271 0 0 0
215 0 1 -1.1104 12.46596618986035 2.408684254234749 9.639319024476935 0 0 0
218 0 2 2.2208 11.154834238772867 3.6449020328750033 8.012370374415212 0 0 0
221 0 1 -1.1104 9.663865651629123 1.8909577306502254 12.103253619974975 0 0 0
224 0 1 -1.1104 9.58345012617105 2.1877759209338183 9.078739382809635 0 0 0
226 0 2 2.2208 8.233468660688603 3.5269058182176622 10.813321870991548 0 0 0
268 0 1 -1.1104 9.79492923787539 5.03681465969615 9.463262983003661 0 0 0
271 0 1 -1.1104 9.601671554846808 4.775237792610459 12.282306312281275 0 0 0
275 0 2 2.2208 8.324707802176329 6.30951808724743 7.7921763778688575 0 0 0
276 0 2 2.2208 11.033157144991424 6.327059035298877 11.013908525806922 0 0 0
279 0 1 -1.1104 12.421174567688858 7.837813004083545 9.46805073003715 0 0 0
280 0 1 -1.1104 12.408876511062653 4.856392675837399 12.390432768885658 0 0 0
283 0 1 -1.1104 12.779238428123648 5.187363214425414 9.559376550912498 0 0 0
285 0 1 -1.1104 9.72111215207709 7.626702620166024 12.162957381739723 0 0 0
273 0 1 -1.1104 9.691669519321286 7.584810744823945 9.44864370029129 0 0 0
278 0 1 -1.1104 12.399150296297316 7.8525082606122725 12.229955781604087 0 0 0
328 0 2 2.2208 8.32793410719077 6.611999139397987 13.66680268780289 0 0 0
9072 0 2 2.2208 -0.14835332426890221 11.764104862471424 10.85913959590922 0 0 0
9079 0 2 2.2208 -0.06593455352981516 9.039704267342902 7.997151875807733 0 0 0
124 0 1 -1.1104 4.004575626693111 13.418933313162787 6.567292028300971 0 0 0
62 0 1 -1.1104 1.0235801099907949 10.424450647915236 6.3914515386973125 0 0 0
241 0 2 2.2208 5.431804066373655 11.899128990252292 10.798301179037326 0 0 0
247 0 1 -1.1104 1.4222109918493289 10.470718100714574 12.22732592009271 0 0 0
250 0 2 2.2208 5.341919828382924 9.094218207101763 7.834388168171964 0 0 0
252 0 1 -1.1104 1.22159248524718 10.549043230360397 9.132862802177723 0 0 0
257 0 2 2.2208 2.5520039563183756 12.023573347386266 7.916313838637098 0 0 0
259 0 2 2.2208 2.7633250776094607 9.0839091395325 10.861242491307456 0 0 0
261 0 1 -1.1104 4.040705138313602 10.59702197580649 12.31996248572935 0 0 0
263 0 1 -1.1104 4.076076223952235 10.515569859767126 9.429154244807249 0 0 0
287 0 1 -1.1104 4.042981472495181 13.553497363457307 12.184040460152874 0 0 0
294 0 1 -1.1104 1.3376239147671576 13.504474749712655 9.244023629841124 0 0 0
299 0 1 -1.1104 1.2456214218855035 13.244935304458066 12.246405830965202 0 0 0
305 0 1 -1.1104 4.069170546891698 13.18901276801185 9.400123819509556 0 0 0
297 0 1 -1.1104 6.780916474523647 13.191563649226339 12.180573944342672 0 0 0
290 0 1 -1.1104 6.881563574162788 13.121511402349862 9.494444380221246 0 0 0
326 0 2 2.2208 5.347021666208384 9.0949200505051 13.656210209516452 0 0 0
321 0 2 2.2208 5.485025472880066 3.8639191749722714 13.538317810437619 0 0 0
101 0 1 -1.1104 9.476632765458286 10.505051263439961 6.573305466470044 0 0 0
154 0 1 -1.1104 9.788141493177031 13.274674802704881 6.679341019948051 0 0 0
329 0 2 2.2208 11.047161463613005 9.183591470119413 13.604126526951337 0 0 0
330 0 2 2.2208 8.182468966222842 11.833345213518196 13.666493114755935 0 0 0
65 0 1 -1.1104 6.659102155323 10.644818106662344 6.51588278879331 0 0 0
111 0 1 -1.1104 6.93781525900371 13.325769534898479 6.626638625786178 0 0 0
249 0 1 -1.1104 6.880335048696102 10.465107315274022 12.487512201832285 0 0 0
90 0 1 -1.1104 12.383964918172762 10.6903505382428 6.3898232771814305 0 0 0
254 0 1 -1.1104 6.820854158471285 10.387408842545524 9.363943582699159 0 0 0
81 0 1 -1.1104 12.503017108046453 13.505794194340556 12.326914193582827 0 0 0
83 0 1 -1.1104 12.452290321410585 13.184633036006828 9.564462739938627 0 0 0
311 0 1 -1.1104 9.728416396511255 13.78271690277061 9.50333467878773 0 0 0
165 0 1 -1.1104 9.542147965217168 13.341664752151532 12.31314723376145 0 0 0
264 0 1 -1.1104 9.719464123124213 10.45239832419022 9.385657877242334 0 0 0
270 0 1 -1.1104 9.412143993688517 10.62069679931433 11.943214867210738 0 0 0
272 0 2 2.2208 8.353950573061878 9.035200744232448 10.587014140783987 0 0 0
274 0 2 2.2208 8.164374546461561 11.79322519296862 7.934372304110061 0 0 0
277 0 2 2.2208 10.906997552725358 12.114150019906017 10.955611577262637 0 0 0
281 0 1 -1.1104 12.332423550598032 10.665512715556998 12.21062612024111 0 0 0
282 0 2 2.2208 11.08978762213472 9.27260851129921 8.057105029149147 0 0 0
284 0 1 -1.1104 12.490346066493291 10.667968194580544 9.590556183516975 0 0 0
9196 0 2 2.2208 -0.21352913231957726 14.713758820991249 13.590752990184521 0 0 0
9163 0 2 2.2208 -0.3249302278816569 20.353443386825454 8.157565993585846 0 0 0
9165 0 2 2.2208 -0.10421547594409089 14.644629357115921 7.952070649696272 0 0 0
9164 0 2 2.2208 -0.20207440274425292 17.541503805351443 10.843087747200945 0 0 0
117 0 1 -1.1104 1.1692432321526591 16.077429433700022 6.4946201111121455 0 0 0
126 0 1 -1.1104 4.16099950899513 18.93384366135795 6.729369184362712 0 0 0
310 0 2 2.2208 2.6620936845034264 14.783752689839075 10.81336253916191 0 0 0
295 0 2 2.2208 5.3613475134809345 14.674328401769486 7.956826817463976 0 0 0
300 0 2 2.2208 5.540877711217934 17.709979949918438 10.898591015467458 0 0 0
298 0 1 -1.1104 1.1432414857291293 18.956120051241527 12.2775630448367 0 0 0
292 0 1 -1.1104 0.9085261482606837 16.29362634826001 9.1403301952082 0 0 0
301 0 1 -1.1104 3.857703093128652 19.035380769261163 9.397894531933662 0 0 0
293 0 2 2.2208 5.286662063706021 20.52178986151994 7.928135701290378 0 0 0
308 0 1 -1.1104 4.120973936938242 16.342183059205578 12.13637768323334 0 0 0
307 0 1 -1.1104 1.1063171663276006 16.085708026728373 12.24790178189664 0 0 0
309 0 2 2.2208 2.4655887362320446 20.366888710804595 11.03328534386294 0 0 0
304 0 1 -1.1104 4.199623813980676 16.103208184775962 9.5040166897191 0 0 0
303 0 2 2.2208 2.7273010353744414 17.555918070482203 8.170787182160693 0 0 0
286 0 1 -1.1104 3.8726120015558774 18.91230030841392 12.422680884126258 0 0 0
291 0 1 -1.1104 1.1035645035647734 19.042823406010545 9.628560112855935 0 0 0
397 0 2 2.2208 2.57746794940058 -4.945520774379278 13.445347124409036 0 0 0
136 0 2 2.2208 11.017240821059683 20.255391174529034 8.025607932490866 0 0 0
229 0 2 2.2208 8.188326400893883 17.56163022795407 8.1573444488332 0 0 0
314 0 1 -1.1104 9.565352717934546 16.526725697893824 9.628690056600663 0 0 0
316 0 2 2.2208 8.11471762493634 20.514956407590383 10.9262439050792 0 0 0
105 0 1 -1.1104 12.346799474594802 16.27221012985558 12.323967881337506 0 0 0
118 0 1 -1.1104 6.929280565344787 16.261204359415892 6.656275840859526 0 0 0
156 0 1 -1.1104 9.39563502897446 18.97848479201045 6.661579601926358 0 0 0
313 0 2 2.2208 8.132150397374808 14.754945910347343 10.943436930518372 0 0 0
104 0 1 -1.1104 12.316966175799116 18.805957602296367 9.469568693183254 0 0 0
145 0 1 -1.1104 12.613031755306853 18.947377934094902 6.589697207656463 0 0 0
137 0 1 -1.1104 12.363563024347359 15.978687177036244 9.567837280098363 0 0 0
296 0 1 -1.1104 6.756070459571283 19.081757747657715 12.32540297699963 0 0 0
289 0 1 -1.1104 6.934060845021175 16.324208872215294 9.453343953633839 0 0 0
288 0 1 -1.1104 6.780230293636988 19.120256242584063 9.60237247518869 0 0 0
306 0 1 -1.1104 6.796412301397205 16.33971907908867 12.419323164880426 0 0 0
27 0 2 2.2208 10.995963564987807 17.503431473298207 11.029858197982493 0 0 0
327 0 2 2.2208 2.5414747874377923 11.92982130744742 13.623492935399216 0 0 0
9197 0 2 2.2208 -0.3944316608113431 20.41527093972391 13.618803610532373 0 0 0
351 0 2 2.2208 8.064898921257504 20.470522382339702 -0.4502177089646118 0 0 0
590 0 2 2.2208 5.412658639496132 -5.018083594074945 -0.44475864081501015 0 0 0
358 0 2 2.2208 5.473392468417154 0.7216829131480577 16.684599320225356 0 0 0
359 0 1 -1.1104 1.482266792119924 -3.5622888309686407 17.987995563303052 0 0 0
363 0 1 -1.1104 1.3368141203147117 -3.8293568966933123 15.083587319154995 0 0 0
371 0 1 -1.1104 0.9264663923430483 -0.8186262798022579 18.014132596560362 0 0 0
373 0 2 2.2208 5.4518465270987475 -2.4124146492438197 19.34247611598077 0 0 0
375 0 1 -1.1104 1.0240306353106008 -0.8226306486484114 15.217758603851715 0 0 0
379 0 1 -1.1104 4.0528383302496716 -3.8368334110940365 17.82579587069587 0 0 0
381 0 2 2.2208 2.560802167185738 0.5243534112154545 19.359310106196023 0 0 0
382 0 1 -1.1104 4.134954174954759 -3.537317831669415 15.070514049112095 0 0 0
386 0 2 2.2208 2.6891327302646717 -2.2501606623827946 16.52107206194635 0 0 0
388 0 1 -1.1104 3.916580822290183 -0.7225106372545308 17.925679386460416 0 0 0
389 0 1 -1.1104 4.030680045734969 -0.6768598183836984 15.013101298953673 0 0 0
364 0 1 -1.1104 1.415890638461772 -3.342483319417576 20.75736713098112 0 0 0
393 0 2 2.2208 2.586126844025176 -5.086923825047865 19.371562013974216 0 0 0
432 0 1 -1.1104 9.716218852713139 18.764265842904877 26.230246393623744 0 0 0
317 0 2 2.2208 -0.1699332223751447 -2.2038074570360506 13.714981264695798 0 0 0
394 0 2 2.2208 -0.34176515290388615 0.6986975931296321 16.54012352770605 0 0 0
319 0 2 2.2208 5.394926462203589 -2.091427399978667 13.739020471197318 0 0 0
391 0 2 2.2208 -0.03571043083551217 -4.963541595518789 16.74922589351337 0 0 0
376 0 1 -1.1104 0.9641741930780562 -0.6983202493558102 20.75144638628891 0 0 0
390 0 1 -1.1104 3.842344597563142 -1.0015546775406028 20.636607579822627 0 0 0
395 0 2 2.2208 -0.2572141221998692 -2.2544364850213623 19.26852860891436 0 0 0
680 0 2 2.2208 11.210804123490673 14.819113276256239 25.05694383136782 0 0 0
372 0 1 -1.1104 6.809032473367116 -0.5473160543040949 18.011200469437394 0 0 0
377 0 1 -1.1104 6.602162795578955 -0.5355770142835656 15.064687512075265 0 0 0
361 0 1 -1.1104 6.850133391768023 -3.5700305384349296 17.843986213542966 0 0 0
367 0 1 -1.1104 6.843910028022109 -3.408250149114923 15.040100057654215 0 0 0
427 0 2 2.2208 8.238542144491454 -4.801454772065667 19.323334754501147 0 0 0
401 0 2 2.2208 11.164353693557146 0.7606412376802504 16.6149716134514 0 0 0
402 0 1 -1.1104 12.560670987455856 -3.5746723870307027 17.84474644103306 0 0 0
404 0 1 -1.1104 12.268109392015 -3.3978868446399004 15.354716439585104 0 0 0
408 0 1 -1.1104 12.470505566439208 -0.7018694030757715 18.01947858921157 0 0 0
409 0 2 2.2208 11.07520891837068 -2.0447392118708048 19.444598716072445 0 0 0
411 0 1 -1.1104 12.699156266060816 -0.8204478166741977 15.179833109236142 0 0 0
413 0 1 -1.1104 9.738368858257678 -3.2231904270606138 17.893734230604988 0 0 0
415 0 2 2.2208 8.27468787365007 0.7387806237219843 19.286730081865645 0 0 0
416 0 1 -1.1104 9.497441277037295 -3.5984147153519683 14.901999526684786 0 0 0
420 0 2 2.2208 8.280524368733062 -2.1691770758203575 16.34095308299923 0 0 0
422 0 1 -1.1104 9.803976969269955 -0.550702149089106 17.869260429064376 0 0 0