LAMMPS data file via write_data, version 29 Oct 2020, timestep = 100130

17640 atoms
2 atom types

-0.35847326953774894 27.69847326953798 xlo xhi
-4.32516044042635 332.40516044042585 ylo yhi
-0.3667560175213322 27.706756017522363 zlo zhi

Masses

1 15.9994
2 232.0381

Atoms # full

1 0 2 2.2208 5.277340861775735 1.3269520505449663 5.15153040318753 0 0 0
2 0 1 -1.1104 1.0203832158009478 -2.898292054705246 1.0213420397600508 0 0 0
3 0 1 -1.1104 1.160012183622716 2.7083734747005233 1.0401071934295145 0 0 0
6 0 1 -1.1104 1.0821566813760457 -2.938743972277332 3.849479978595736 0 0 0
7 0 1 -1.1104 1.0686046293331088 2.7558879920011674 3.8881304787202517 0 0 0
10 0 1 -1.1104 1.2887386856963021 -0.0009474540281417218 0.9451002407039258 0 0 0
12 0 2 2.2208 5.197677169990104 -1.3723003235229008 2.3879321763937127 0 0 0
13 0 2 2.2208 5.252659771655694 4.1110652309841385 2.503155480499961 0 0 0
14 0 1 -1.1104 1.0104122583988318 -0.11485397918026383 3.7299783296807996 0 0 0
16 0 1 -1.1104 3.854262734144312 -2.868613997891053 0.9585130481230122 0 0 0
17 0 1 -1.1104 3.878612099411053 2.6448636419294216 1.1632670787931623 0 0 0
18 0 2 2.2208 2.532994224353081 1.3448156242681002 2.385240835997195 0 0 0
19 0 1 -1.1104 3.9079468087068685 -3.033482115300458 3.666393946027192 0 0 0
20 0 1 -1.1104 3.875698606379665 2.616366694066929 3.9623046416377625 0 0 0
21 0 2 2.2208 2.560446139546037 -1.5792924880126367 5.161320843946625 0 0 0
22 0 2 2.2208 2.32264672623968 4.063311612867784 5.172254464602633 0 0 0
23 0 1 -1.1104 3.9458681738432007 -0.05834430399709484 1.0392427946817342 0 0 0
24 0 1 -1.1104 3.7983507463180795 -0.20581929409606442 3.7656413463658676 0 0 0
166 0 1 -1.1104 1.3123909091233454 -2.816483237403759 6.753236518304474 0 0 0
170 0 1 -1.1104 1.0934385523348422 -0.25685885217503257 6.527941256515051 0 0 0
8 0 1 -1.1104 6.636553314297831 -2.8573800337553896 3.8044250294007953 0 0 0
15 0 1 -1.1104 6.645376080899955 -1.8466455908925767e-07 3.715684812674657 0 0 0
8455 0 2 2.2208 7.987578107179655 -4.1878554212897825 8.022324588002856 0 0 0
9368 0 2 2.2208 -0.2123914423498121 20.895702118753785 13.575610984083283 0 0 0
9149 0 2 2.2208 -0.28618813682492666 4.116271019390651 2.454261099064459 0 0 0
136 0 2 2.2208 10.909905322969495 20.964629375068753 7.972701120533326 0 0 0
9 0 1 -1.1104 6.6393469907764855 2.7234325504590005 3.933946778134072 0 0 0
11 0 1 -1.1104 6.813917803320793 -0.15908628067228228 0.9810112195829963 0 0 0
4 0 1 -1.1104 6.56927079408318 -2.8970367668789634 1.0705243681988985 0 0 0
5 0 1 -1.1104 6.865625832767503 2.8343475899217103 1.079291086580643 0 0 0
31 0 2 2.2208 10.858900071651632 1.3303763333680751 5.224803097148139 0 0 0
32 0 1 -1.1104 12.160191622955425 -2.929967383187402 0.979857696788904 0 0 0
33 0 1 -1.1104 12.166446746576353 2.6230137823843314 1.162628277760249 0 0 0
34 0 1 -1.1104 12.341114579278496 -2.819652137341748 3.8330683069507665 0 0 0
35 0 1 -1.1104 12.340228341449038 2.893115022997219 3.8960108683181023 0 0 0
36 0 1 -1.1104 12.33017603717081 -0.16014374192476494 0.9782989281498116 0 0 0
37 0 2 2.2208 10.837724156816192 -1.5206837275098484 2.500099203774692 0 0 0
38 0 2 2.2208 10.983788983313014 4.203688375312059 2.4269498743302726 0 0 0
39 0 1 -1.1104 12.190086087753082 -0.019708910482064364 3.7689022277600808 0 0 0
40 0 1 -1.1104 9.42835766150823 -2.8852168536610763 0.9895626917063516 0 0 0
41 0 1 -1.1104 9.48766384856466 2.8307358640871403 1.0491552700862026 0 0 0
42 0 2 2.2208 8.155328824076648 1.4386497506549414 2.424453489810134 0 0 0
43 0 1 -1.1104 9.426552158293587 -3.008933930051243 3.8250800751294465 0 0 0
44 0 1 -1.1104 9.470155979574246 2.8110927262197243 3.7823998084349717 0 0 0
45 0 2 2.2208 8.072569003621936 -1.5305424437139576 5.284914187874117 0 0 0
46 0 2 2.2208 8.10202797829857 4.0387088999664575 5.3115468959178935 0 0 0
47 0 1 -1.1104 9.601663697539804 -0.09721671920002507 1.1335369509249638 0 0 0
48 0 1 -1.1104 9.428218015748888 -0.07027145068593119 3.929231353826706 0 0 0
206 0 1 -1.1104 12.329271127846418 2.79176587385356 6.553054286915202 0 0 0
207 0 1 -1.1104 12.08955581244004 -0.10852227582959459 6.6211907350688515 0 0 0
8450 0 2 2.2208 8.042157903117422 -4.299053811599051 2.39279005944652 0 0 0
205 0 1 -1.1104 12.354759718445722 -2.867846505038807 6.584873978083405 0 0 0
9119 0 2 2.2208 13.662748798365874 20.93065489964356 10.788187086253965 0 0 0
168 0 1 -1.1104 6.76328632077708 -2.778868429108354 6.618424107208876 0 0 0
8525 0 2 2.2208 10.886476819906079 -4.166980251464293 -0.330776693541598 0 0 0
575 0 2 2.2208 8.048132292091967 -1.528803067323344 -0.3522760701004923 0 0 0
576 0 2 2.2208 7.9841208774661 4.175726584493218 -0.31420179613917193 0 0 0
54 0 2 2.2208 5.134684774384426 6.94414477855767 5.2440759390997735 0 0 0
55 0 2 2.2208 5.30927219651981 12.513750186607695 5.334365508621837 0 0 0
56 0 1 -1.1104 1.1273588400162329 8.371837328119119 1.0862793585071693 0 0 0
58 0 1 -1.1104 0.9992910177363324 8.252009089825496 3.6820834809785006 0 0 0
60 0 1 -1.1104 0.8958823975597007 5.323442788768872 0.9854693763551119 0 0 0
61 0 1 -1.1104 0.9768096848919086 11.400989116796922 1.0678977330109456 0 0 0
66 0 2 2.2208 5.232720790307756 9.738769170996484 2.3985321004943354 0 0 0
67 0 1 -1.1104 0.9829783639019118 5.526666598787367 3.791844824159174 0 0 0
68 0 1 -1.1104 1.0595295278444912 10.92399169055862 3.7949738094899774 0 0 0
71 0 1 -1.1104 3.6883302095592345 8.207929663249514 1.0956298446640529 0 0 0
72 0 2 2.2208 2.367603054912 6.865819545277089 2.513139508788707 0 0 0
73 0 2 2.2208 2.3915226450105598 12.508455388361082 2.551471417598113 0 0 0
74 0 1 -1.1104 3.7792166218863663 8.345259107005415 3.839231667233833 0 0 0
75 0 2 2.2208 2.5542465746276863 9.82663420687067 5.169815312180861 0 0 0
76 0 1 -1.1104 3.8718178130001784 5.466213575860574 1.0502189938466986 0 0 0
77 0 1 -1.1104 3.7556377885911125 11.10038494013843 1.0256324577494083 0 0 0
79 0 1 -1.1104 3.659120484516698 5.464544278956583 3.793681362842613 0 0 0
80 0 1 -1.1104 3.963004195315377 11.29207827470027 3.7585781234418625 0 0 0
236 0 1 -1.1104 1.209995471019353 5.5184593408644425 6.5825923348157644 0 0 0
64 0 1 -1.1104 6.672284461564369 11.035303109388188 0.9634598438660128 0 0 0
57 0 1 -1.1104 6.450410587079076 8.310718515285682 1.0843774175079464 0 0 0
59 0 1 -1.1104 6.691109696889444 8.231792017311317 3.8647522459539836 0 0 0
9150 0 2 2.2208 -0.2932422439223255 6.898452946421185 5.197216953120043 0 0 0
8835 0 2 2.2208 5.321265471695527 -4.1752631143043 -0.3204185168893066 0 0 0
609 0 2 2.2208 5.17986332606283 6.954658014006577 -0.2794773285890659 0 0 0
8448 0 2 2.2208 2.4424165396601523 -4.319166069424909 2.3880027757047984 0 0 0
70 0 1 -1.1104 6.68882021725506 11.065812597473027 4.022521830483065 0 0 0
69 0 1 -1.1104 6.745709794725403 5.497428960785326 3.872132310745155 0 0 0
237 0 1 -1.1104 6.663590461604202 5.503421774849781 6.570446938582592 0 0 0
63 0 1 -1.1104 6.664405462903167 5.551023434293715 0.9580719857825402 0 0 0
84 0 2 2.2208 10.871620409542656 6.915015395285584 5.188969598022091 0 0 0
85 0 2 2.2208 10.945563540839245 12.412663425125865 5.270590584175162 0 0 0
86 0 1 -1.1104 12.27291542667475 8.35578232866016 1.0569771387629288 0 0 0
87 0 1 -1.1104 12.417871520257934 8.311912194584927 3.7582681791382573 0 0 0
88 0 1 -1.1104 12.395368702618407 5.641544836441363 0.9252485141749611 0 0 0
89 0 1 -1.1104 12.294047911126064 11.281546874936181 1.0192473181052277 0 0 0
91 0 2 2.2208 11.07912973095265 9.766100336146026 2.3638863313570617 0 0 0
92 0 1 -1.1104 12.21850333289657 5.529086203676915 3.843236806445142 0 0 0
93 0 1 -1.1104 12.357528561710406 10.991186510294098 3.928355582517791 0 0 0
94 0 1 -1.1104 9.366955801141389 8.284158912055812 1.080790803674672 0 0 0
95 0 2 2.2208 8.099509171065524 6.946459254420604 2.465263078693983 0 0 0
96 0 2 2.2208 8.126067987693366 12.504720556191993 2.358831687514003 0 0 0
97 0 1 -1.1104 9.553051204455127 8.279016521250265 3.8967254407268364 0 0 0
98 0 2 2.2208 8.113853980093934 9.667479461443326 5.331361122954121 0 0 0
99 0 1 -1.1104 9.443108184770823 5.39276993056391 1.0315831056293305 0 0 0
100 0 1 -1.1104 9.435272540075056 11.104417437455922 1.003838816171223 0 0 0
102 0 1 -1.1104 9.504179895801757 5.578147469962762 3.736873038565555 0 0 0
103 0 1 -1.1104 9.62411162899239 11.074998747310833 3.8230337342380136 0 0 0
265 0 1 -1.1104 12.374512156818737 8.641705953328117 6.624679912208926 0 0 0
269 0 1 -1.1104 9.627161474354912 5.381011003841058 6.585219419970028 0 0 0
266 0 1 -1.1104 12.234747629926128 5.649868777685237 6.540935167529419 0 0 0
199 0 1 -1.1104 12.416292996418026 16.64708143033471 9.356084199110947 0 0 0
315 0 1 -1.1104 9.42872978630352 16.623017529794545 12.16747172019973 0 0 0
90 0 1 -1.1104 12.271054424167273 11.194454285297354 6.796800824762744 0 0 0
101 0 1 -1.1104 9.414814469711807 11.156342150569598 6.692824566382189 0 0 0
82 0 1 -1.1104 12.45515175381375 16.665701623691056 12.14859520326675 0 0 0
9018 0 2 2.2208 -0.2149664874456576 21.006903847919588 2.3286171930512682 0 0 0
106 0 2 2.2208 5.200984730427259 18.14447022617444 5.207342715534551 0 0 0
107 0 1 -1.1104 1.1234253679563428 14.122671568183867 1.0556855988506717 0 0 0
109 0 1 -1.1104 1.0611499444316408 19.603540347454018 1.071580579521541 0 0 0
113 0 1 -1.1104 0.8661135777521362 13.78847992748703 3.8649066956207294 0 0 0
114 0 1 -1.1104 1.07897089162899 19.410547021033867 3.8562869756773352 0 0 0
116 0 1 -1.1104 0.9123021905138566 16.94301802593554 1.034303142143475 0 0 0
119 0 2 2.2208 5.251909193428771 15.298076802363195 2.2692705065239007 0 0 0
120 0 2 2.2208 5.251427805676712 21.004855871412552 2.4185465276331803 0 0 0
121 0 1 -1.1104 0.9032005524605021 16.780927919472145 3.9983386305425115 0 0 0
123 0 1 -1.1104 3.823867636383574 13.80377118057216 0.9602759761315679 0 0 0
125 0 1 -1.1104 3.867059267006569 19.43806225214897 0.9623207980404618 0 0 0
127 0 2 2.2208 2.4207014791695647 18.264336079865743 2.4007527183033153 0 0 0
128 0 1 -1.1104 3.75653284356925 13.97091442382698 3.833442318838102 0 0 0
129 0 1 -1.1104 3.839533291577449 19.627141739483406 3.880583574002237 0 0 0
130 0 2 2.2208 2.382584136212771 15.277142580871862 5.39616755856838 0 0 0
131 0 2 2.2208 2.571479903476009 21.10270097709801 5.237007323393537 0 0 0
132 0 1 -1.1104 3.875348356161045 16.762199083255325 0.9284795153337598 0 0 0
134 0 1 -1.1104 3.6373902501627513 16.681924700172452 3.733949877265029 0 0 0
140 0 1 -1.1104 6.628661768628655 16.68594629414506 0.9360393182117626 0 0 0
118 0 1 -1.1104 6.692813028224259 16.81541822769918 6.5252055014480295 0 0 0
302 0 1 -1.1104 1.1960047542525547 19.734811784116168 6.743104210212456 0 0 0
126 0 1 -1.1104 3.9004574336548368 19.614216891116364 6.546797834588259 0 0 0
110 0 1 -1.1104 6.700008285131901 13.884298852877201 0.9690557470810718 0 0 0
108 0 1 -1.1104 1.0492490707701816 14.037147188127424 6.789826986942163 0 0 0
81 0 1 -1.1104 12.390916632955138 19.497109300646862 9.383416256056128 0 0 0
165 0 2 2.2208 13.585075017288707 18.139212019620192 2.413160722410673 0 0 0
83 0 2 2.2208 -0.337029598169714 12.423207335245845 5.217929828376469 0 0 0
122 0 1 -1.1104 6.579226463192705 16.70822153163781 3.7704907679049677 0 0 0
139 0 1 -1.1104 6.539196283012393 19.468104714688987 3.685599972456978 0 0 0
115 0 1 -1.1104 6.734031882459635 13.872218531792894 3.803833898337408 0 0 0
112 0 1 -1.1104 6.774885595096294 19.698347582649102 6.763038522658833 0 0 0
138 0 1 -1.1104 6.608088502687346 19.73590493637363 0.9691469173902416 0 0 0
141 0 2 2.2208 10.873177515276069 18.07941244237762 5.220981083182154 0 0 0
142 0 1 -1.1104 12.447663483561026 13.951396264825876 1.2263020679484087 0 0 0
144 0 1 -1.1104 12.273272308555857 19.64849063051519 1.0142889400680846 0 0 0
146 0 1 -1.1104 12.198481156970503 13.905162087770945 3.877270228400196 0 0 0
147 0 1 -1.1104 12.205189890577666 19.528308557231732 3.6678452023748465 0 0 0
148 0 1 -1.1104 12.21375444230993 16.86038178475529 1.222098572352614 0 0 0
150 0 2 2.2208 10.91175556866903 15.37716417582195 2.388084460659028 0 0 0
151 0 2 2.2208 10.839694506698038 21.034493192454875 2.3092498630689535 0 0 0
152 0 1 -1.1104 12.39506214800365 16.749470455646343 3.8719121842298874 0 0 0
153 0 1 -1.1104 9.535189733712697 13.944341224889964 0.9909086892144868 0 0 0
155 0 1 -1.1104 9.389881266564004 19.499567341066687 1.025556779542663 0 0 0
157 0 2 2.2208 8.07512764692375 18.17084831428917 2.422466423547671 0 0 0
158 0 1 -1.1104 9.439045709520633 13.971445056819576 3.8851986626866615 0 0 0
159 0 1 -1.1104 9.483211926485184 19.535854577329165 3.8675273470355362 0 0 0
160 0 2 2.2208 8.153850216432255 15.315728234123162 5.179047234014981 0 0 0
161 0 2 2.2208 8.128179069301002 20.91093724922764 5.234660054113102 0 0 0
162 0 1 -1.1104 9.472298384605109 16.656214661970566 1.04368694541791 0 0 0
164 0 1 -1.1104 9.484271582781727 16.774620892580376 3.722244636025418 0 0 0
143 0 1 -1.1104 12.462884338437721 13.981923884435552 6.576613037702568 0 0 0
145 0 1 -1.1104 12.094253434097931 19.525439473269074 6.466839752403148 0 0 0
154 0 1 -1.1104 9.558827087030195 13.906568246782697 6.606305976063054 0 0 0
163 0 1 -1.1104 9.512569413976463 16.650317354604347 6.631139856499729 0 0 0
201 0 1 -1.1104 9.53475016896259 19.3122241464472 12.387221608429133 0 0 0
233 0 2 2.2208 8.029379374666444 15.248377014967673 10.841440174437603 0 0 0
9219 0 2 2.2208 -0.19150423591512578 1.303508433775202 -0.35519018167335065 0 0 0
172 0 1 -1.1104 4.0373030513927795 -2.9482380103127688 6.45793576273828 0 0 0
173 0 1 -1.1104 3.8663917003061816 2.8270719970954077 6.559608464631477 0 0 0
171 0 1 -1.1104 6.559962309894369 -0.019884626545003427 6.607323577243127 0 0 0
169 0 1 -1.1104 6.687799714779168 2.813138858818215 6.70504661485871 0 0 0
28 0 2 2.2208 -0.3119686104994166 12.407008617755984 10.769376465490208 0 0 0
9152 0 2 2.2208 13.644330486224437 -1.508753510439428 5.225530422164698 0 0 0
8885 0 2 2.2208 -0.2810731155540722 -1.5121167604129164 7.97599550122658 0 0 0
9017 0 2 2.2208 -0.1931121602454832 4.057937191594229 7.983362336495529 0 0 0
167 0 1 -1.1104 0.9134661481215762 2.5159390109306226 6.567552836597873 0 0 0
174 0 1 -1.1104 3.840799814792282 -0.1195916712437441 6.525293636050549 0 0 0
175 0 2 2.2208 5.415093245485144 1.2485241286033437 10.853976716541714 0 0 0
176 0 1 -1.1104 1.1159731488250046 -2.8716452597151787 12.436650479934022 0 0 0
177 0 1 -1.1104 1.1488140230115707 2.6968732757960407 12.119943778417804 0 0 0
180 0 1 -1.1104 1.0557378172618972 -2.867163450549927 9.712176611803963 0 0 0
181 0 1 -1.1104 1.1294319496156557 2.728028227259571 9.417800642542923 0 0 0
184 0 1 -1.1104 1.1287941922474802 -0.08040542148906986 12.182267269285447 0 0 0
186 0 2 2.2208 5.189390643914624 -1.5086917878918285 8.000492196588798 0 0 0
187 0 2 2.2208 5.3083130895106745 4.061037154906385 7.994932827013138 0 0 0
188 0 1 -1.1104 1.0880643679149449 -0.04737013067074224 9.424076698482027 0 0 0
190 0 1 -1.1104 3.9289721400224327 -2.968993346217667 12.252395175279807 0 0 0
191 0 1 -1.1104 4.008536597131003 2.5423189679947265 12.456585848560398 0 0 0
192 0 2 2.2208 2.4879984610672863 1.2346929180215713 8.079183729046878 0 0 0
193 0 1 -1.1104 3.7305556961290667 -2.929554682454178 9.304546804633018 0 0 0
194 0 1 -1.1104 4.028492426111287 2.667267027948135 9.518250428933015 0 0 0
195 0 2 2.2208 2.503592163790883 -1.5835612119696751 10.857514799215169 0 0 0
196 0 2 2.2208 2.5199000581288034 4.148079075911862 10.798142536268864 0 0 0
197 0 1 -1.1104 3.840672149991926 -0.14702124749122458 12.309842326830479 0 0 0
198 0 1 -1.1104 3.8857601657471568 -0.22489674986043262 9.447986223001205 0 0 0
8884 0 2 2.2208 -0.30783524375813026 1.3249598939968816 10.810139095869124 0 0 0
357 0 2 2.2208 5.229840574589644 -1.5560669568470866 13.66182519715216 0 0 0
105 0 2 2.2208 10.850529276250002 15.35425463973369 7.955107675609311 0 0 0
358 0 2 2.2208 2.4361698710920265 1.2847143684134041 13.665221200103202 0 0 0
306 0 1 -1.1104 6.605415202669405 16.592089962147856 12.331357898831971 0 0 0
49 0 1 -1.1104 12.355585965886778 13.742065114298374 12.334964293693846 0 0 0
230 0 2 2.2208 13.6655669670584 -1.4501422550350203 10.79537889881668 0 0 0
210 0 1 -1.1104 9.472834181407034 -0.2207392336292987 6.625645453193369 0 0 0
209 0 1 -1.1104 9.558086391647103 2.4600294691246076 6.701779762446078 0 0 0
208 0 1 -1.1104 9.529504602940008 -2.952516193654336 6.550921629537765 0 0 0
30 0 2 2.2208 10.984404567264313 18.005112400313603 10.763652574982734 0 0 0
183 0 1 -1.1104 6.737599441322288 2.6820468176858183 9.48984180264402 0 0 0
189 0 1 -1.1104 6.746951951265696 -0.21824131941813987 9.386199406883113 0 0 0
185 0 1 -1.1104 6.952567101210184 -0.14795392151574943 12.243613792602709 0 0 0
182 0 1 -1.1104 6.6689640758101065 -2.8091615090572577 9.386192879478383 0 0 0
179 0 1 -1.1104 6.822359664864417 2.5928182597432383 12.280407889953302 0 0 0
178 0 1 -1.1104 6.6795524765015655 -3.0128251477310988 12.171451896344033 0 0 0
211 0 2 2.2208 10.927754136988678 1.287624925510584 10.84609682510233 0 0 0
212 0 1 -1.1104 12.344856698157932 -2.9401928423181367 12.339173226520073 0 0 0
213 0 1 -1.1104 12.542376469524894 2.497802538301473 12.202959959212093 0 0 0
214 0 1 -1.1104 12.35999465827188 -2.8313292429993933 9.371407188555509 0 0 0
215 0 1 -1.1104 12.49611072720033 2.7781792567999832 9.344408070207859 0 0 0
216 0 1 -1.1104 12.289543370755815 -0.11767514292091248 12.205782898939304 0 0 0
217 0 2 2.2208 10.795763857430517 -1.4646644718224815 7.916391302320508 0 0 0
218 0 2 2.2208 10.913371708372802 4.054137922732887 7.946970590388916 0 0 0
219 0 1 -1.1104 12.258372638567597 -0.04877191229681605 9.449887357083405 0 0 0
220 0 1 -1.1104 9.413444121482634 -2.8790555976648613 12.409800304061475 0 0 0
221 0 1 -1.1104 9.72992591836521 2.751570836247121 12.342650899319773 0 0 0
222 0 2 2.2208 8.114525324742347 1.2171574577283217 8.049113398701854 0 0 0
223 0 1 -1.1104 9.60778228982564 -2.9528783297559156 9.425426003989083 0 0 0
224 0 1 -1.1104 9.469989983860458 2.7334124137568336 9.452816889119195 0 0 0
225 0 2 2.2208 8.274664470955376 -1.666918952628456 10.833539173672493 0 0 0
226 0 2 2.2208 8.08842366626767 4.122519508946001 10.833472525914003 0 0 0
227 0 1 -1.1104 9.59368538299539 -0.17888378357779203 12.243674578983068 0 0 0
228 0 1 -1.1104 9.44889662657944 -0.07898606325810191 9.437618347076743 0 0 0
391 0 2 2.2208 10.925388366650909 -1.5887062442029305 13.623909666916182 0 0 0
78 0 1 -1.1104 3.9144425776379896 11.062374814902709 6.496696617398387 0 0 0
238 0 1 -1.1104 3.772877399303124 8.327125103031747 6.657999823490971 0 0 0
65 0 1 -1.1104 6.514800111946998 11.254753325846483 6.816694590838197 0 0 0
9086 0 2 2.2208 -0.3327134684156375 9.712416374537723 8.004937973705347 0 0 0
234 0 1 -1.1104 1.0976892621056409 8.278202696609435 6.694234576095393 0 0 0
316 0 2 2.2208 8.144918703396444 20.947356080574473 10.845547319980032 0 0 0
62 0 1 -1.1104 0.9728475171699525 11.052343266181364 6.572725236943442 0 0 0
239 0 1 -1.1104 3.8977468627063496 5.5550062867692915 6.619611174509869 0 0 0
240 0 2 2.2208 5.344351030075356 6.910703090324992 10.926692836351442 0 0 0
241 0 2 2.2208 5.355520910094088 12.583941695955703 10.882962625340198 0 0 0
242 0 1 -1.1104 1.0242078602875673 8.302085975507357 12.301940891108485 0 0 0
244 0 1 -1.1104 1.1250608974696779 8.213524908942228 9.492704304959338 0 0 0
246 0 1 -1.1104 1.0144412054705656 5.483548102866679 12.15866492708274 0 0 0
247 0 1 -1.1104 0.8096684542882951 11.131692510140695 12.120388617339968 0 0 0
250 0 2 2.2208 5.186622404614127 9.550383083033298 8.102039116246026 0 0 0
251 0 1 -1.1104 1.1270602297917727 5.374926784058151 9.343220579276759 0 0 0
252 0 1 -1.1104 1.1319770505461555 11.104465063429213 9.355004254741807 0 0 0
255 0 1 -1.1104 3.8662994945099696 8.240612032219262 12.282617001413312 0 0 0
256 0 2 2.2208 2.4459501230663254 6.872431298645174 8.057671096390433 0 0 0
257 0 2 2.2208 2.5442797875979757 12.455541366706642 7.985941150510054 0 0 0
258 0 1 -1.1104 3.812628589205069 8.182058230347064 9.549367309070723 0 0 0
259 0 2 2.2208 2.507580097339353 9.63923355369483 10.791496556545829 0 0 0
260 0 1 -1.1104 3.8967680752248137 5.456055359560665 12.301525497565036 0 0 0
261 0 1 -1.1104 3.595659327597775 11.112637689107752 12.285670440302209 0 0 0
262 0 1 -1.1104 3.934546639945831 5.41895526128339 9.589756410395017 0 0 0
263 0 1 -1.1104 3.803420472188342 11.070111997497834 9.515392193649381 0 0 0
248 0 1 -1.1104 6.693703921387349 5.495619163014795 12.079909704848491 0 0 0
253 0 1 -1.1104 6.626918672603666 5.473676842924137 9.38496862157854 0 0 0
243 0 1 -1.1104 6.485603189117025 8.338558127689128 12.219052836005863 0 0 0
249 0 1 -1.1104 6.7129591237212685 11.207290106964713 12.218259574339106 0 0 0
50 0 1 -1.1104 12.41117318576053 19.68730954694558 12.208666504624674 0 0 0
427 0 2 2.2208 5.189856998803145 9.757575410969665 13.62070485092652 0 0 0
232 0 1 -1.1104 9.675645116491525 19.569107035745617 9.501902667011347 0 0 0
267 0 1 -1.1104 9.565748655272108 8.261642619965453 6.771743625815261 0 0 0
455 0 2 2.2208 8.07314421120041 12.44789991485551 13.584203764600796 0 0 0
200 0 1 -1.1104 9.531858226905662 13.90975461980288 12.089148167263474 0 0 0
235 0 1 -1.1104 6.610516097588526 8.297351145233092 6.669219149485201 0 0 0
254 0 1 -1.1104 6.648223524781241 11.055235632146784 9.488341619376952 0 0 0
245 0 1 -1.1104 6.614774824283712 8.348443287272067 9.519332240006133 0 0 0
264 0 1 -1.1104 9.53614737003652 11.090162825653167 9.439732195109686 0 0 0
268 0 1 -1.1104 9.516871139813798 5.467504233565591 9.424562308715686 0 0 0
270 0 1 -1.1104 9.401696844789207 11.194346764248941 12.096798585157572 0 0 0
271 0 1 -1.1104 9.390003230965359 5.604054526387551 12.150313699187556 0 0 0
272 0 2 2.2208 8.024824726747338 9.851193894242623 10.925026134726311 0 0 0
273 0 1 -1.1104 9.407436097665448 8.293787854243549 9.441680006583912 0 0 0
274 0 2 2.2208 8.117497842062605 12.46905523260833 8.035813756306602 0 0 0
275 0 2 2.2208 8.066393640397612 6.853157408929779 8.157997979539948 0 0 0
276 0 2 2.2208 10.930715057188403 6.8461161120533784 10.806003636094898 0 0 0
277 0 2 2.2208 10.900959450098966 12.495620986431977 10.718817866133872 0 0 0
278 0 1 -1.1104 12.311644804825496 8.161174870373136 12.34006114979044 0 0 0
279 0 1 -1.1104 12.464005675827577 8.269369966170371 9.598138964896526 0 0 0
280 0 1 -1.1104 12.16961216165068 5.279337515421297 12.085146984198182 0 0 0
281 0 1 -1.1104 12.398384879703293 10.992330414125886 12.241797288990128 0 0 0
282 0 2 2.2208 10.94035678230617 9.650802946106669 8.065764690254348 0 0 0
283 0 1 -1.1104 12.225025312322678 5.575124001245338 9.250516178386215 0 0 0
284 0 1 -1.1104 12.28389613289979 11.078318924209464 9.37001523769401 0 0 0
285 0 1 -1.1104 9.392830837434298 8.431219255251762 12.235007931824407 0 0 0
454 0 2 2.2208 10.880173181434827 9.545041383686378 13.650654556468991 0 0 0
296 0 1 -1.1104 6.652905516963428 19.525315519813972 12.117718824951979 0 0 0
133 0 1 -1.1104 3.8487576685464826 16.870692959871178 6.819105500828328 0 0 0
117 0 1 -1.1104 0.9914870330409452 16.887597913555897 6.71848755118798 0 0 0
124 0 1 -1.1104 3.8590975346289302 13.832558663868904 6.626027960140017 0 0 0
156 0 1 -1.1104 9.38488209251164 19.434692746702385 6.670449869078022 0 0 0
149 0 1 -1.1104 12.21364761718171 16.676230388626397 6.597446677085447 0 0 0
111 0 1 -1.1104 6.728331643711422 13.989040641508465 6.677735626704346 0 0 0
8859 0 2 2.2208 -0.30849813707241 20.969550309006905 7.975881238907664 0 0 0
312 0 1 -1.1104 9.558164098644934 13.919819936869125 9.281527467516824 0 0 0
310 0 2 2.2208 2.5794795246344604 15.216658751736343 10.853966863823583 0 0 0
309 0 2 2.2208 2.5687651162764293 20.89381901354133 10.636499018082022 0 0 0
286 0 1 -1.1104 3.9520624948326675 19.544021543669043 12.35268469360547 0 0 0
287 0 1 -1.1104 3.958467185522503 13.814244602658999 12.455211650820239 0 0 0
291 0 1 -1.1104 1.0537849713966676 19.272783710217524 9.538253920924701 0 0 0
292 0 1 -1.1104 1.097176193937689 16.597245554161976 9.76152250309497 0 0 0
293 0 2 2.2208 5.216850733193797 20.983944282352557 7.941578646280651 0 0 0
294 0 1 -1.1104 1.1926254756229981 13.909322358183537 9.458174122627273 0 0 0
295 0 2 2.2208 5.302210961944747 15.292175350516095 8.061975937603947 0 0 0
298 0 1 -1.1104 1.0413446146550542 19.559523340748108 12.120131382012953 0 0 0
299 0 1 -1.1104 1.1204957937244377 13.885141391691617 12.192610705784436 0 0 0
300 0 2 2.2208 5.312236732583951 18.161544476075257 10.825281761474248 0 0 0
301 0 1 -1.1104 3.973920496753652 19.5402177744669 9.430127415978426 0 0 0
303 0 2 2.2208 2.4068916836218244 18.101507868207843 8.063284679252982 0 0 0
304 0 1 -1.1104 3.8696224771573595 16.683479236160608 9.41155555256583 0 0 0
305 0 1 -1.1104 4.018094646497382 13.96262207377504 9.389393406182458 0 0 0
307 0 1 -1.1104 1.0573304378877653 16.751657196648953 12.375379377134736 0 0 0
308 0 1 -1.1104 3.9330361914146135 16.58106965688249 12.307100441860879 0 0 0
288 0 1 -1.1104 6.736028958500711 19.470097441411284 9.41745391331831 0 0 0
489 0 2 2.2208 2.459178806692977 18.067216966574417 13.641532120516132 0 0 0
297 0 1 -1.1104 6.712415779938504 13.919932307744231 12.279741479625441 0 0 0
53 0 1 -1.1104 12.326138719471771 13.86336578217897 9.516968454769593 0 0 0
314 0 1 -1.1104 9.453482595577139 16.70121505074394 9.3109905486784 0 0 0
290 0 1 -1.1104 6.755620195190847 13.997535795011922 9.495673255540726 0 0 0
289 0 1 -1.1104 6.6580582056347355 16.716741617652225 9.375548961925555 0 0 0
311 0 2 2.2208 8.116351267293572 18.10817416333703 7.9668647252565705 0 0 0
547 0 2 2.2208 7.985703731620303 15.296358474281913 -0.2667292426565737 0 0 0
390 0 2 2.2208 8.313012438217665 1.1863263162090725 13.572849345308379 0 0 0
428 0 2 2.2208 2.313307580711866 12.478378348439483 13.648056451995132 0 0 0
517 0 2 2.2208 10.741415828037661 15.243478923623808 13.527646409716867 0 0 0
544 0 2 2.2208 5.2482616920239495 1.3409927732110087 -0.2627406513935284 0 0 0
546 0 2 2.2208 2.4491435060218154 4.11624269451819 -0.33995305476057425 0 0 0
574 0 2 2.2208 10.849303448329817 1.2571435339147534 -0.2723899777569905 0 0 0
610 0 2 2.2208 2.3876475197267903 9.746656456762173 -0.30772959654520804 0 0 0
581 0 2 2.2208 13.640730287444525 -1.529309246713288 -0.3572816586621812 0 0 0
665 0 2 2.2208 2.5439449272414323 15.231607361656033 -0.3183557031888036 0 0 0
353 0 2 2.2208 13.606855964403355 15.365246804338405 -0.32710196030343397 0 0 0
663 0 2 2.2208 2.382737219019803 20.97084915183253 -0.36337746259323467 0 0 0
548 0 2 2.2208 10.818190007617238 18.2652996455842 -0.3475377828074038 0 0 0
317 0 2 2.2208 5.487904705118542 1.167561671357399 16.31838286551543 0 0 0
318 0 1 -1.1104 1.0056586253073116 -3.019495103325348 18.031639585453064 0 0 0
319 0 1 -1.1104 1.0429521680710834 2.644896350594337 17.801399477732602 0 0 0
322 0 1 -1.1104 1.0763212940640174 -2.896068321216781 15.093907171822114 0 0 0
324 0 1 -1.1104 1.0324428315990373 2.52135902874768 14.961329327539078 0 0 0
330 0 1 -1.1104 1.114665836756068 -0.18961915547863123 17.832969048393668 0 0 0
332 0 2 2.2208 5.3444565388784095 -1.5105920919089209 19.26094024270849 0 0 0
333 0 2 2.2208 5.227578028815223 4.130821335362576 19.234422572315196 0 0 0
334 0 1 -1.1104 1.0143863074117805 -0.1429750565570966 15.14619993220478 0 0 0
338 0 1 -1.1104 3.9349943982770714 -2.9156803141973278 17.76708704209786 0 0 0
339 0 1 -1.1104 3.815216173640556 2.6939166932458374 17.751790826217402 0 0 0
340 0 2 2.2208 2.3985575112150674 1.356191673173601 19.262908995977703 0 0 0
341 0 1 -1.1104 3.8197518130206483 -2.9579317753060534 15.050521638714256 0 0 0
343 0 1 -1.1104 3.862369551289436 2.622432599586279 15.080045229296518 0 0 0
345 0 2 2.2208 2.478534176683264 -1.5650361274956215 16.509860682271626 0 0 0
346 0 2 2.2208 2.408974342370391 4.0386429711566425 16.389969512869346 0 0 0
347 0 1 -1.1104 3.756617125764542 -0.1384717944985066 17.80152509290453 0 0 0
348 0 1 -1.1104 3.793429909823986 -0.1451259825083952 14.992111094223473 0 0 0
328 0 1 -1.1104 6.776763797695988 2.573842177817784 15.004784030665721 0 0 0
354 0 2 2.2208 -0.34140975076176516 -1.644060265636868 19.248411197922792 0 0 0
325 0 1 -1.1104 1.015947960427559 2.7907021299808683 20.485216997922805 0 0 0
349 0 1 -1.1104 3.9554030922255596 -0.13501487164224948 20.66219494383466 0 0 0
323 0 1 -1.1104 1.1360783887418433 -3.0341509275780316 20.875334413794615 0 0 0
342 0 1 -1.1104 3.8653623289770227 -2.885401757786274 20.592641703260913 0 0 0
8837 0 2 2.2208 2.494731643871686 -4.194173196575321 24.996932438939396 0 0 0
359 0 2 2.2208 5.349106177390827 3.996580857232875 13.73580140395769 0 0 0
320 0 1 -1.1104 6.781451982086945 -2.7611598513238063 17.81730052698251 0 0 0
321 0 1 -1.1104 6.661840497721574 2.7901163809497267 17.86754156418316 0 0 0
326 0 1 -1.1104 6.659014185932227 -2.907788388789775 15.036699341261992 0 0 0
331 0 1 -1.1104 6.673296541178418 0.0021908158945310708 17.788313385643 0 0 0
336 0 1 -1.1104 6.619455914808636 -0.13038815184785496 14.875492400632575 0 0 0
360 0 2 2.2208 10.798299352007266 1.2227957491381307 16.498775971278157 0 0 0
361 0 1 -1.1104 12.305951340292829 -2.9381830496700494 17.96953950607361 0 0 0
362 0 1 -1.1104 12.286765742289596 2.8802612063256614 17.84412844493255 0 0 0
363 0 1 -1.1104 12.316756710721307 -2.959530995771884 14.914540270730612 0 0 0
365 0 1 -1.1104 12.179181145939944 2.6613077406937564 15.164274634310551 0 0 0
367 0 1 -1.1104 12.28816503467374 -0.0018047435596129043 17.810951773012235 0 0 0
368 0 2 2.2208 10.862810347564084 -1.5553468488016864 19.340055198288425 0 0 0
369 0 2 2.2208 10.868834369652108 4.058677320111573 19.20483019122759 0 0 0
370 0 1 -1.1104 12.266765609769381 -0.21797242575303494 15.068074119221128 0 0 0
372 0 1 -1.1104 9.571446243289536 -2.893515587402853 18.04464459815862 0 0 0
373 0 1 -1.1104 9.441890301633615 2.469640083058757 17.77952899802867 0 0 0
374 0 2 2.2208 7.999416949422576 1.3315061366906265 19.245153946379798 0 0 0