ITEM: TIMESTEP
80000
ITEM: NUMBER OF ATOMS
17700
ITEM: BOX BOUNDS pp pp pp
-4.1135761861223302e-01 2.7751357618612698e+01
-4.8002113442414567e+00 3.3288021134424287e+02
-4.0072580693105153e-01 2.7740725806930527e+01
ITEM: ATOMS id type q x y z
1 2 2.2208 5.17821 0.897014 5.09921
2 1 -1.1104 0.726944 -3.39515 0.843822
6 1 -1.1104 0.714789 -3.31035 3.55573
10 1 -1.1104 0.969752 -0.584427 0.892999
12 2 2.2208 5.03979 -1.82653 2.25262
14 1 -1.1104 0.660299 -0.497436 3.75263
16 1 -1.1104 3.69335 -3.37575 0.995527
18 2 2.2208 2.2762 0.982464 2.30252
19 1 -1.1104 3.57256 -3.30903 3.64624
21 2 2.2208 2.30054 -2.02532 4.9582
23 1 -1.1104 3.64224 -0.560883 0.712817
24 1 -1.1104 3.70103 -0.456366 3.54125
3 1 -1.1104 0.705467 2.24922 0.86778
7 1 -1.1104 0.674537 2.3289 3.70482
13 2 2.2208 4.95958 3.71075 2.20085
17 1 -1.1104 3.56937 2.42906 0.870859
20 1 -1.1104 3.59262 2.51053 3.64091
11 1 -1.1104 6.46768 -0.329831 0.905592
5 1 -1.1104 6.34127 2.40106 0.838237
22 2 2.2208 2.09946 3.87019 5.07393
173 1 -1.1104 3.62804 2.20641 6.31664
9 1 -1.1104 6.26737 2.34021 3.70687
15 1 -1.1104 6.41461 -0.573172 3.86603
166 1 -1.1104 0.886993 -3.24505 6.33882
4 1 -1.1104 6.54793 -3.36754 0.922942
169 1 -1.1104 6.48069 2.38507 6.45907
8 1 -1.1104 6.38294 -3.20336 3.58632
328 2 2.2208 7.81357 6.74549 13.4717
167 1 -1.1104 0.737407 2.49654 6.40344
168 1 -1.1104 6.2654 -3.21024 6.83117
203 2 2.2208 5.0462 -4.54969 11.0587
28 2 2.2208 2.2844 -4.68861 2.22109
330 2 2.2208 7.82974 12.2038 13.6253
31 2 2.2208 10.5645 0.867905 5.08052
32 1 -1.1104 12.0078 -3.40624 1.00795
34 1 -1.1104 11.9292 -3.24118 3.74563
36 1 -1.1104 12.0559 -0.514182 1.00756
37 2 2.2208 10.5447 -1.94295 2.46311
39 1 -1.1104 11.8533 -0.540066 3.84548
40 1 -1.1104 9.21871 -3.20657 0.93995
42 2 2.2208 7.88196 1.0529 2.21898
43 1 -1.1104 9.07793 -3.37602 3.93303
45 2 2.2208 7.79857 -1.90035 5.33925
47 1 -1.1104 9.3043 -0.33137 1.06772
48 1 -1.1104 9.20341 -0.525619 3.92467
33 1 -1.1104 12.2425 2.17177 0.825086
35 1 -1.1104 11.8916 2.31072 3.6364
41 1 -1.1104 9.41563 2.37774 0.832805
44 1 -1.1104 9.0894 2.13516 3.75001
38 2 2.2208 10.7335 3.76932 2.21668
46 2 2.2208 7.76936 3.84051 5.05605
50 2 2.2208 13.3907 -1.9292 5.04541
49 2 2.2208 13.3293 0.798981 2.29966
312 1 -1.1104 9.18757 19.0679 9.48553
8850 2 2.2208 13.4739 3.74116 4.99854
314 1 -1.1104 9.18424 16.4216 9.36234
209 1 -1.1104 9.20014 2.72003 6.48288
205 1 -1.1104 12.0058 -3.31992 6.63598
105 1 -1.1104 11.9608 16.5864 12.1027
232 2 2.2208 10.6791 -4.70548 10.8688
9150 2 2.2208 13.494 15.0313 10.6158
137 1 -1.1104 11.947 16.4778 9.25413
54 2 2.2208 4.95604 6.56466 5.03176
56 1 -1.1104 0.757985 7.89536 0.882017
58 1 -1.1104 0.867474 7.8822 3.75152
60 1 -1.1104 0.810422 4.9139 0.949135
67 1 -1.1104 0.7396 5.21213 3.73091
71 1 -1.1104 3.72767 7.99376 0.858673
72 2 2.2208 2.18707 6.51929 2.20997
74 1 -1.1104 3.61981 8.02874 3.62215
76 1 -1.1104 3.68348 5.18944 0.801581
79 1 -1.1104 3.67726 5.20754 3.67403
55 2 2.2208 4.97539 12.269 5.21416
61 1 -1.1104 0.779453 10.7096 0.894572
66 2 2.2208 5.21138 9.55376 2.21515
68 1 -1.1104 0.764685 10.6504 3.77051
73 2 2.2208 2.18097 12.0628 2.37315
75 2 2.2208 2.24297 9.45814 5.00992
77 1 -1.1104 3.47079 10.809 0.885138
80 1 -1.1104 3.61708 10.7099 3.60317
63 1 -1.1104 6.62445 5.24761 0.860591
59 1 -1.1104 6.40057 7.84713 3.69496
64 1 -1.1104 6.25071 10.8761 0.870321
70 1 -1.1104 6.48211 10.7513 3.56583
236 1 -1.1104 0.676067 5.30123 6.59666
57 1 -1.1104 6.60437 7.95156 0.777842
69 1 -1.1104 6.35344 5.05251 3.69079
65 1 -1.1104 6.56386 10.7526 6.44407
78 1 -1.1104 3.52969 10.7136 6.71429
62 1 -1.1104 0.595109 10.8429 6.58915
235 1 -1.1104 6.38432 8.09847 6.49643
81 1 -1.1104 11.7774 13.4955 12.011
311 1 -1.1104 8.97427 13.6483 9.27146
9155 2 2.2208 13.3761 12.0816 2.33934
84 2 2.2208 10.665 6.66142 5.07316
86 1 -1.1104 12.0561 7.91536 0.798607
87 1 -1.1104 12.0895 7.74189 3.74714
88 1 -1.1104 12.3433 4.9352 0.919113
92 1 -1.1104 12.078 4.96986 3.79553
94 1 -1.1104 9.296 7.84754 0.912941
95 2 2.2208 7.92554 6.55929 2.33445
97 1 -1.1104 9.35791 8.11031 3.76362
99 1 -1.1104 9.45396 5.09311 0.87574
102 1 -1.1104 9.32375 5.0835 3.5988
85 2 2.2208 10.7198 12.1832 5.14846
89 1 -1.1104 12.2009 10.6532 0.758936
91 2 2.2208 10.6908 9.33667 2.19251
93 1 -1.1104 11.9479 10.7343 3.70004
96 2 2.2208 7.87013 12.3444 2.44017
98 2 2.2208 7.74301 9.3504 5.02147
100 1 -1.1104 9.28742 10.6829 0.985913
103 1 -1.1104 9.14921 10.9406 3.67282
8879 2 2.2208 13.4791 9.28107 5.10277
101 1 -1.1104 9.31045 10.9111 6.43311
9156 2 2.2208 13.4446 6.48246 2.40973
269 1 -1.1104 9.17056 5.40322 6.46756
267 1 -1.1104 9.21259 8.03637 6.41894
107 1 -1.1104 0.797428 13.4337 0.918167
113 1 -1.1104 0.75779 13.4687 3.73983
123 1 -1.1104 3.70379 13.7303 1.00425
128 1 -1.1104 3.66531 13.4199 3.74466
106 2 2.2208 4.99763 17.7769 4.94937
109 1 -1.1104 0.93498 19.0703 0.819786
114 1 -1.1104 0.865869 19.2051 3.88083
116 1 -1.1104 0.753154 16.3027 0.943793
119 2 2.2208 5.05941 14.9864 2.28446
120 2 2.2208 5.07565 20.5443 2.27938
121 1 -1.1104 0.773737 16.3024 3.61146
125 1 -1.1104 3.63292 19.2241 1.06517
127 2 2.2208 2.2266 17.7704 2.29397
129 1 -1.1104 3.72348 19.175 3.7943
130 2 2.2208 2.23722 14.9218 5.15233
131 2 2.2208 2.23198 20.7141 5.17441
132 1 -1.1104 3.52545 16.4205 0.977598
134 1 -1.1104 3.50911 16.3402 3.75366
139 1 -1.1104 6.66276 19.2003 3.546
108 1 -1.1104 0.924312 13.6193 6.58825
140 1 -1.1104 6.42241 16.3977 0.788721
110 1 -1.1104 6.42701 13.6903 0.86903
122 1 -1.1104 6.54176 16.3492 3.63917
118 1 -1.1104 6.28269 16.4152 6.54216
126 1 -1.1104 3.41968 19.2159 6.62626
111 1 -1.1104 6.51883 13.6047 6.53864
117 1 -1.1104 0.722747 16.4494 6.5003
133 1 -1.1104 3.33424 16.3184 6.57743
138 1 -1.1104 6.55914 19.0309 0.758943
9184 2 2.2208 13.2954 17.8234 13.552
112 1 -1.1104 6.24271 19.1862 6.47345
124 1 -1.1104 3.69236 13.5585 6.55054
8927 2 2.2208 13.6193 20.6327 5.11055
115 1 -1.1104 6.48481 13.5271 3.81822
9160 2 2.2208 13.5238 17.7521 2.4583
142 1 -1.1104 12.2387 13.5214 0.950609
146 1 -1.1104 12.1446 13.5883 3.70412
153 1 -1.1104 9.23409 13.4717 0.889387
158 1 -1.1104 9.39794 13.713 3.80496
141 2 2.2208 10.6066 17.9529 5.19419
144 1 -1.1104 12.0127 19.311 0.864273
147 1 -1.1104 12.3308 19.0772 3.67599
148 1 -1.1104 12.0451 16.3407 0.862608
150 2 2.2208 10.6608 15.0117 2.24569
151 2 2.2208 10.6471 20.5906 2.27747
152 1 -1.1104 12.2113 16.3614 3.66515
155 1 -1.1104 9.28095 19.0985 0.885914
157 2 2.2208 7.96328 17.7323 2.16361
159 1 -1.1104 9.40387 19.3302 3.77299
160 2 2.2208 8.00293 15.0949 5.11949
161 2 2.2208 7.84005 20.7041 5.06459
162 1 -1.1104 9.20337 16.1871 0.733651
164 1 -1.1104 9.27803 16.45 3.63089
149 1 -1.1104 12.05 16.4263 6.47198
156 1 -1.1104 9.06 19.3412 6.55465
143 1 -1.1104 11.9349 13.548 6.52623
163 1 -1.1104 9.185 16.4759 6.55393
154 1 -1.1104 9.07689 13.6658 6.62396
8948 2 2.2208 13.5154 15.0479 5.16885
320 2 2.2208 2.2023 0.930056 13.4948
174 1 -1.1104 3.55139 -0.4945 6.29935
231 2 2.2208 7.77369 -4.61914 7.96013
316 2 2.2208 7.7866 20.5219 10.7923
172 1 -1.1104 3.58099 -3.37148 6.54919
170 1 -1.1104 0.705988 -0.556996 6.52415
175 2 2.2208 5.03502 0.851906 10.6526
176 1 -1.1104 0.713627 -3.18165 12.164
180 1 -1.1104 0.817504 -3.2316 9.34739
184 1 -1.1104 0.792534 -0.292816 12.2248
186 2 2.2208 4.88426 -1.92143 7.86326
188 1 -1.1104 0.711408 -0.478834 9.44093
190 1 -1.1104 3.47845 -3.23636 12.2466
192 2 2.2208 2.22243 1.09111 7.79332
193 1 -1.1104 3.62646 -3.26224 9.35238
195 2 2.2208 2.15184 -1.86273 10.775
197 1 -1.1104 3.58329 -0.328635 11.9931
198 1 -1.1104 3.55294 -0.603978 9.22075
177 1 -1.1104 0.664003 2.50027 12.0139
181 1 -1.1104 0.928997 2.46525 9.24193
191 1 -1.1104 3.5334 2.50011 12.1036
194 1 -1.1104 3.86132 2.10405 9.15191
196 2 2.2208 2.21747 3.7213 10.7419
187 2 2.2208 5.0685 3.58495 7.70503
189 1 -1.1104 6.5752 -0.374864 9.46977
179 1 -1.1104 6.50279 2.36947 12.0963
178 1 -1.1104 6.50652 -3.31072 12.2665
185 1 -1.1104 6.22661 -0.430584 12.2828
171 1 -1.1104 6.25977 -0.411745 6.63675
182 1 -1.1104 6.43424 -3.13022 9.58246
183 1 -1.1104 6.57554 2.42285 9.28683
313 2 2.2208 7.79508 14.9316 10.8277
315 1 -1.1104 9.26349 16.5452 12.2642
322 2 2.2208 7.79317 0.899465 13.4792
53 2 2.2208 13.3481 -4.76844 2.31337
9162 2 2.2208 13.4324 1.07135 7.96651
208 1 -1.1104 9.18383 -3.18082 6.67321
347 2 2.2208 7.96753 -1.84133 -0.368851
332 2 2.2208 4.97692 20.7004 13.6048
230 2 2.2208 13.4952 -1.7182 10.6358
339 2 2.2208 7.77844 17.8828 13.6223
210 1 -1.1104 9.18147 -0.249636 6.63435
8985 2 2.2208 13.4897 3.92459 10.6649
207 1 -1.1104 11.9756 -0.522749 6.5366
206 1 -1.1104 12.2414 2.23604 6.52636
211 2 2.2208 10.7506 1.00942 10.6425
212 1 -1.1104 12.1502 -3.28042 12.0691
214 1 -1.1104 12.3398 -3.30992 9.3693
216 1 -1.1104 11.9498 -0.444598 12.053
217 2 2.2208 10.6747 -1.96462 8.03889
219 1 -1.1104 12.0194 -0.662218 9.38207
220 1 -1.1104 9.39954 -3.23792 12.2843
222 2 2.2208 7.9024 1.06345 8.05519
223 1 -1.1104 9.32803 -3.43765 9.36029
225 2 2.2208 7.81807 -1.70946 10.9385
227 1 -1.1104 9.31818 -0.30022 12.0585
228 1 -1.1104 9.31509 -0.447973 9.23286
213 1 -1.1104 11.9405 2.13333 12.4342
215 1 -1.1104 12.1424 2.37713 9.47093
221 1 -1.1104 9.34959 2.48113 12.0307
224 1 -1.1104 9.33378 2.37453 9.2877
226 2 2.2208 7.83895 3.86234 10.7879
218 2 2.2208 10.7409 3.68254 7.8415
338 2 2.2208 10.6194 14.9857 13.3647
29 2 2.2208 5.0603 -4.62953 5.09991
104 1 -1.1104 11.978 19.2371 9.53549
321 2 2.2208 4.99851 3.80333 13.5063
238 1 -1.1104 3.86069 7.87534 6.66396
237 1 -1.1104 6.40041 5.27422 6.44715
9157 2 2.2208 -0.566612 14.8736 2.21101
234 1 -1.1104 0.949974 8.09296 6.59542
239 1 -1.1104 3.57038 5.2114 6.59272
240 2 2.2208 5.0135 6.53624 10.743
242 1 -1.1104 0.717731 8.10633 12.2543
244 1 -1.1104 0.932569 7.87798 9.39775
246 1 -1.1104 0.869861 5.17605 12.1471
251 1 -1.1104 0.783862 5.27965 9.54365
255 1 -1.1104 3.60815 7.88565 12.3428
256 2 2.2208 2.20145 6.55895 7.96089
258 1 -1.1104 3.74284 8.16873 9.42191
260 1 -1.1104 3.54095 5.27461 12.1706
262 1 -1.1104 3.52897 5.18189 9.33811
241 2 2.2208 4.95043 12.193 10.6631
247 1 -1.1104 0.680021 10.7737 12.2188
250 2 2.2208 4.95192 9.32728 7.94164
252 1 -1.1104 0.730483 10.9955 9.34474
257 2 2.2208 2.18516 12.223 7.89241
259 2 2.2208 2.09358 9.43545 10.6913
261 1 -1.1104 3.53543 10.9115 12.1941
263 1 -1.1104 3.51214 11.0359 9.28883
249 1 -1.1104 6.4298 10.8477 12.2576
243 1 -1.1104 6.55291 8.19502 12.1776
253 1 -1.1104 6.15613 5.11982 9.3407
248 1 -1.1104 6.48351 5.15372 12.22
245 1 -1.1104 6.43332 7.84483 9.27411
254 1 -1.1104 6.2654 10.7914 9.22863
9112 2 2.2208 13.3417 20.8216 10.7659
90 1 -1.1104 12.1569 10.7152 6.47643
265 1 -1.1104 12.0233 7.97546 6.56647
9061 2 2.2208 13.3566 6.48393 7.95279
9066 2 2.2208 13.3973 9.3545 10.7051
266 1 -1.1104 12.0531 5.10948 6.58372
268 1 -1.1104 9.18619 5.20453 9.38351
271 1 -1.1104 9.36827 5.24153 12.3197
273 1 -1.1104 9.02494 7.9527 9.23805
275 2 2.2208 7.68447 6.66009 7.93674
276 2 2.2208 10.6372 6.54179 10.745
278 1 -1.1104 11.9273 8.05189 12.1705
279 1 -1.1104 11.9258 8.05541 9.30786
280 1 -1.1104 12.193 5.07179 12.177
283 1 -1.1104 12.024 5.24791 9.44611
285 1 -1.1104 9.18068 7.94478 12.0578
264 1 -1.1104 9.26083 10.7295 9.32557
270 1 -1.1104 9.02299 10.6417 12.1966
272 2 2.2208 7.76037 9.35103 10.6501
274 2 2.2208 7.8067 12.1532 7.83917
277 2 2.2208 10.4486 12.1895 10.5876
281 1 -1.1104 11.7922 10.7376 12.1733
282 2 2.2208 10.6392 9.33431 7.9888
284 1 -1.1104 12.01 10.7882 9.32606
9062 2 2.2208 13.3759 12.1739 7.93766
329 2 2.2208 10.6436 9.27588 13.4275
9151 2 2.2208 13.3319 17.856 7.86497
302 1 -1.1104 0.606692 19.1949 6.6071
27 2 2.2208 10.459 17.9796 10.8352
9183 2 2.2208 13.4336 12.1265 13.5748
290 1 -1.1104 6.45459 13.593 9.26221
287 1 -1.1104 3.35813 13.5852 12.0314
294 1 -1.1104 0.850671 13.7876 9.16415
299 1 -1.1104 0.508227 13.5896 12.4891
305 1 -1.1104 3.69946 13.7302 9.21696
310 2 2.2208 2.01295 15.0003 10.6949
286 1 -1.1104 3.52748 19.1958 12.153
291 1 -1.1104 0.700578 19.1462 9.49566
292 1 -1.1104 0.711399 16.5994 9.2976
293 2 2.2208 4.96621 20.5165 7.98245
295 2 2.2208 5.07037 15.0219 7.89088
298 1 -1.1104 0.593526 19.124 12.3531
300 2 2.2208 4.92261 17.7649 10.8487
301 1 -1.1104 3.66469 19.3111 9.48207
303 2 2.2208 2.18501 17.7639 7.96212
304 1 -1.1104 3.55473 16.503 9.36182
307 1 -1.1104 0.676383 16.1981 12.2293
308 1 -1.1104 3.47571 16.5154 12.1251
309 2 2.2208 2.12644 20.5577 10.8121
288 1 -1.1104 6.47429 19.2452 9.33002
297 1 -1.1104 6.13854 13.6464 12.049
289 1 -1.1104 6.19231 16.5189 9.33018
296 1 -1.1104 6.41385 19.1877 12.1507
233 2 2.2208 13.5309 -4.5869 7.94823
229 2 2.2208 7.78716 17.8333 8.01797
136 2 2.2208 10.4856 20.6545 8.01322
82 1 -1.1104 12.1795 19.3953 12.2825
145 1 -1.1104 11.9781 19.113 6.61251
306 1 -1.1104 6.53796 16.611 12.0427
199 1 -1.1104 9.17994 19.1993 12.3078
165 1 -1.1104 9.05077 13.4812 11.9524
135 2 2.2208 10.5243 15.0564 7.9956
83 1 -1.1104 11.9149 13.6243 9.36493
9180 2 2.2208 13.396 6.5309 13.489
318 2 2.2208 13.5478 0.918428 13.6585
324 2 2.2208 10.7034 3.6647 13.5404
327 2 2.2208 2.03534 12.1699 13.6084
325 2 2.2208 2.08228 6.58113 13.5627
326 2 2.2208 5.02471 9.34879 13.5842
202 2 2.2208 2.17648 -4.69983 8.0082
52 2 2.2208 10.6158 -4.70401 5.35575
397 2 2.2208 2.05984 -4.74199 13.5386
51 2 2.2208 7.89406 -4.70522 2.39107
323 2 2.2208 10.6397 -1.84627 13.5378
430 2 2.2208 13.4722 -4.56775 13.5211
351 2 2.2208 7.88117 20.5532 -0.491089
319 2 2.2208 5.06326 -1.96102 13.5934
336 2 2.2208 4.92466 15.073 13.3829
358 2 2.2208 5.15221 0.870174 16.1755
359 1 -1.1104 0.833972 -3.3414 17.8485
363 1 -1.1104 0.825048 -3.38774 15.0851
371 1 -1.1104 0.725969 -0.59083 17.7745
373 2 2.2208 5.06266 -1.85703 19.1459
375 1 -1.1104 0.872682 -0.220077 14.9712
379 1 -1.1104 3.6897 -3.17192 17.8534
381 2 2.2208 2.24522 0.967187 19.0982
382 1 -1.1104 3.58611 -3.39615 15.0048
386 2 2.2208 2.201 -1.84956 16.4072
388 1 -1.1104 3.51572 -0.326374 17.7366
389 1 -1.1104 3.67549 -0.469365 14.8881
360 1 -1.1104 0.774567 2.18156 17.7976
365 1 -1.1104 0.976353 2.32567 14.7091
374 2 2.2208 5.08487 3.75322 19.26
380 1 -1.1104 3.75569 2.36038 17.7482
384 1 -1.1104 3.73629 2.2534 14.8734
387 2 2.2208 2.39827 3.71143 16.2656
377 1 -1.1104 6.5722 -0.466984 14.8766
369 1 -1.1104 6.44542 2.49062 15.0094
362 1 -1.1104 6.46656 2.39717 17.9244
372 1 -1.1104 6.57382 -0.558089 17.8117
364 1 -1.1104 0.88778 -3.21995 20.6009
367 1 -1.1104 6.45601 -3.24183 15.0084
361 1 -1.1104 6.61265 -3.20589 17.657
393 2 2.2208 2.14154 -4.75324 19.144
383 1 -1.1104 3.70322 -3.08805 20.8568
376 1 -1.1104 0.815591 -0.430096 20.5514
366 1 -1.1104 0.764917 2.34223 20.5827
370 1 -1.1104 6.56626 2.50817 20.5545
9247 2 2.2208 13.4302 0.861091 19.2727
401 2 2.2208 10.706 0.973633 16.4553
402 1 -1.1104 11.9581 -3.33617 17.9963
404 1 -1.1104 12.079 -3.3279 15.0904
408 1 -1.1104 12.0716 -0.601197 17.9666
409 2 2.2208 10.6042 -1.83585 19.2878
411 1 -1.1104 11.9889 -0.402362 15.0525
413 1 -1.1104 9.23876 -3.3586 17.645
415 2 2.2208 7.83142 0.991155 19.1395
416 1 -1.1104 9.3952 -3.18558 14.8149
420 2 2.2208 8.03482 -1.97195 16.4057
422 1 -1.1104 9.31761 -0.487899 17.9605
423 1 -1.1104 9.1425 -0.44269 14.8864
403 1 -1.1104 12.161 2.1395 17.751
406 1 -1.1104 12.1391 2.31857 14.9263
414 1 -1.1104 9.34894 2.16369 17.8967
418 1 -1.1104 9.29973 2.53328 15.1215
410 2 2.2208 10.737 3.79394 19.266
421 2 2.2208 7.7728 3.79134 16.334
396 2 2.2208 13.5083 3.76921 16.4309
429 2 2.2208 13.4112 -2.01911 16.4976
620 2 2.2208 10.7268 -4.59377 21.9711
340 2 2.2208 13.4226 20.7784 27.5851
424 1 -1.1104 9.11259 -0.218035 20.675
405 1 -1.1104 12.1321 -3.13253 20.7319
417 1 -1.1104 9.17251 -3.20383 20.5412
434 2 2.2208 5.00036 6.5678 16.3069
436 1 -1.1104 0.744562 7.91501 17.755
438 1 -1.1104 0.61883 7.97172 14.9804
442 1 -1.1104 1.05727 5.0806 17.7739
447 1 -1.1104 0.670611 5.0653 14.9766
455 1 -1.1104 3.4333 8.00384 17.903
456 2 2.2208 2.18786 6.59844 19.3054
458 1 -1.1104 3.63261 7.98892 15.0542
461 1 -1.1104 3.67761 5.18256 17.7867
463 1 -1.1104 3.49342 5.25014 14.9638
435 2 2.2208 4.90592 12.3208 16.4032
443 1 -1.1104 0.623851 10.7262 17.8267
446 2 2.2208 4.99679 9.43346 19.2258
449 1 -1.1104 0.650251 10.9055 15.0192
457 2 2.2208 2.15288 12.3054 19.2109
460 2 2.2208 2.17406 9.32044 16.4169
462 1 -1.1104 3.46879 10.7801 17.7673
465 1 -1.1104 3.44755 10.63 14.8737
437 1 -1.1104 6.34138 8.0293 17.6306
451 1 -1.1104 6.3264 5.20374 14.9458
453 1 -1.1104 6.33416 10.8804 14.9854
444 1 -1.1104 6.5315 5.24347 17.5728
440 1 -1.1104 6.1687 8.00477 14.9895
445 1 -1.1104 6.23376 10.9772 17.7909
459 1 -1.1104 3.55424 7.99196 20.5888
439 1 -1.1104 0.902325 7.97927 20.5063
466 1 -1.1104 3.68525 10.8027 20.5944
454 1 -1.1104 6.48562 10.7814 20.7399
448 1 -1.1104 0.861528 5.12641 20.5645
441 1 -1.1104 6.61742 8.04227 20.4068
452 1 -1.1104 6.64711 5.17354 20.5769
591 2 2.2208 5.10629 -4.66507 21.8905
9316 2 2.2208 13.5891 6.55273 19.2384
9315 2 2.2208 13.5949 9.52497 16.3939
470 2 2.2208 10.7439 6.43187 16.3899
472 1 -1.1104 12.0318 7.89403 17.7145
473 1 -1.1104 11.9423 7.93976 14.9247
475 1 -1.1104 12.063 5.03963 17.8798
478 1 -1.1104 12.0668 5.17654 14.7981
482 1 -1.1104 9.1147 7.98331 17.6875
483 2 2.2208 7.8704 6.48528 19.0842
485 1 -1.1104 9.20133 8.05247 15.0431
488 1 -1.1104 9.3035 4.91376 17.689
490 1 -1.1104 9.27394 5.25276 14.9436
471 2 2.2208 10.5354 12.1749 16.3461
476 1 -1.1104 11.8606 10.7806 17.8111
477 2 2.2208 10.5442 9.5283 19.3055
480 1 -1.1104 12.2111 10.8927 15.082
484 2 2.2208 7.86982 12.2761 19.1841
487 2 2.2208 7.58003 9.47561 16.409
489 1 -1.1104 8.99978 10.9698 17.8006
492 1 -1.1104 9.14209 10.8935 14.9096
493 1 -1.1104 9.25636 10.886 20.7329
346 2 2.2208 10.6585 0.880386 27.6225
474 1 -1.1104 12.1586 8.03232 20.4762
486 1 -1.1104 9.32706 8.02335 20.4078
479 1 -1.1104 12.0718 5.19956 20.6809
426 2 2.2208 10.735 -4.7005 16.4665
425 2 2.2208 13.4824 -4.7697 19.3151
341 2 2.2208 5.13635 0.84026 27.5155
498 1 -1.1104 0.879765 13.5429 17.7726
502 1 -1.1104 0.860371 13.6778 15.1156
518 1 -1.1104 3.60884 13.6843 17.7935
521 1 -1.1104 3.61671 13.4936 14.8845
497 2 2.2208 5.04221 17.866 16.3896
499 1 -1.1104 0.495061 19.1947 17.8215
504 1 -1.1104 0.569222 19.1396 14.9056
510 1 -1.1104 0.767303 16.3845 17.8412
512 2 2.2208 5.09438 15.0036 19.1827
513 2 2.2208 4.95975 20.7093 19.2996
514 1 -1.1104 0.712338 16.4746 15.0462
519 1 -1.1104 3.48327 19.1018 17.7734
520 2 2.2208 2.20812 17.8134 19.16
523 1 -1.1104 3.45636 19.2919 15.1017
525 2 2.2208 2.14742 15.0313 16.4096
526 2 2.2208 1.8818 20.6284 16.4036
527 1 -1.1104 3.72826 16.4234 17.8639
528 1 -1.1104 3.46198 16.4111 15.0451
501 1 -1.1104 6.28219 19.2438 17.8357
507 1 -1.1104 6.37889 13.5626 20.4984
508 1 -1.1104 6.17238 19.3735 15.0976
500 1 -1.1104 6.47917 13.6395 17.7364
516 1 -1.1104 6.3815 16.6158 14.8201
511 1 -1.1104 6.53406 16.3749 17.65
506 1 -1.1104 6.37559 13.7667 14.8348
529 1 -1.1104 3.57069 16.2644 20.5007
522 1 -1.1104 3.61761 13.5416 20.6907
503 1 -1.1104 0.83189 13.6899 20.6139
505 1 -1.1104 0.798224 19.2176 20.559
517 1 -1.1104 6.47393 16.3044 20.6528
509 1 -1.1104 6.14622 19.1603 20.4886
9388 2 2.2208 13.3903 20.5633 16.5656
534 1 -1.1104 12.0848 13.5792 17.8171
536 1 -1.1104 11.9643 13.621 14.8534
545 1 -1.1104 9.22799 13.7166 17.7259
548 1 -1.1104 9.22934 13.5566 14.9508
533 2 2.2208 10.5792 17.7407 16.5699
535 1 -1.1104 12.0307 19.1817 18.0156
538 1 -1.1104 11.8541 19.2446 15.3581
540 1 -1.1104 11.897 16.3955 17.9224
541 2 2.2208 10.5225 14.9616 19.1914
542 2 2.2208 10.6029 20.5231 19.2088
543 1 -1.1104 11.9133 16.3862 14.8446
546 1 -1.1104 9.23405 19.3313 17.845
547 2 2.2208 7.65783 17.8325 19.4117
550 1 -1.1104 9.13352 19.332 15.0151
552 2 2.2208 7.8023 15.0169 16.2991
553 2 2.2208 7.76997 20.7633 16.4182
554 1 -1.1104 9.18486 16.4477 17.9722
555 1 -1.1104 9.09442 16.4148 14.8605
556 1 -1.1104 9.17572 16.3877 20.7264
9385 2 2.2208 13.4028 15.0324 16.3954
9387 2 2.2208 13.4247 17.7821 19.2442
544 1 -1.1104 11.9366 16.4655 20.5292
549 1 -1.1104 9.24158 13.7385 20.5801
551 1 -1.1104 8.97446 19.0848 20.7817
539 1 -1.1104 11.9905 19.421 20.7981
467 2 2.2208 7.71347 20.6479 21.9972
680 2 2.2208 10.6246 14.9468 24.995
427 2 2.2208 7.87221 -4.79497 19.1786
390 1 -1.1104 3.62007 -0.224158 20.6497
385 1 -1.1104 3.5762 2.28111 20.5421
561 2 2.2208 5.0753 1.00625 21.9466
562 1 -1.1104 0.795064 -3.07976 23.4703
566 1 -1.1104 0.685314 -3.35144 26.2785
570 1 -1.1104 0.888326 -0.474561 23.3217
572 2 2.2208 4.98169 -2.05954 24.7242
574 1 -1.1104 0.916535 -0.446342 26.3167
576 1 -1.1104 3.70231 -3.48446 23.3861
578 2 2.2208 2.27673 0.800205 24.9006
579 1 -1.1104 3.71298 -3.37872 26.2435
581 2 2.2208 2.13513 -1.81023 21.9378
583 1 -1.1104 3.5175 -0.689555 23.3213
584 1 -1.1104 3.81292 -0.6394 26.1878
563 1 -1.1104 1.10854 2.29185 23.3276
567 1 -1.1104 0.683171 2.32727 26.1491
577 1 -1.1104 3.65184 2.2245 23.4827
580 1 -1.1104 3.59115 2.37516 26.2694
573 2 2.2208 4.93398 3.65069 24.6298
582 2 2.2208 2.23986 3.68561 22.0193
569 1 -1.1104 6.49107 2.28713 26.1461
575 1 -1.1104 6.54764 -0.549987 26.2184
368 1 -1.1104 6.58746 -3.20644 20.6261
571 1 -1.1104 6.46392 -0.346456 23.4179
565 1 -1.1104 6.49983 2.39738 23.2921
568 1 -1.1104 6.61704 -3.36207 26.3159
378 1 -1.1104 6.40343 -0.291657 20.5298
564 1 -1.1104 6.33443 -3.29295 23.3877
350 2 2.2208 10.6504 17.8292 27.5944
433 2 2.2208 7.8958 14.9112 21.9236
343 2 2.2208 2.20993 3.66656 27.5755
342 2 2.2208 2.36709 -1.95515 27.6293
419 1 -1.1104 9.31063 2.58011 20.5956
407 1 -1.1104 12.0023 2.40658 20.6289
354 2 2.2208 4.97255 12.2129 27.6782
623 2 2.2208 13.4249 -1.82999 22.0936
9448 2 2.2208 13.4434 3.77423 21.9767
9287 2 2.2208 13.4655 0.922753 24.7616
412 1 -1.1104 11.9617 -0.488221 20.7627
597 2 2.2208 10.6173 0.979913 22.0516
598 1 -1.1104 12.0161 -3.30821 23.4157
600 1 -1.1104 12.0352 -3.44722 26.3129
602 1 -1.1104 12.0308 -0.417948 23.4225
603 2 2.2208 10.5806 -1.87037 24.8964
605 1 -1.1104 12.0641 -0.493371 26.3343
606 1 -1.1104 9.18144 -3.34027 23.4029
608 2 2.2208 7.79497 0.928354 24.8827
609 1 -1.1104 9.22429 -3.17357 26.2104
611 2 2.2208 7.94487 -1.806 21.9621
613 1 -1.1104 9.19527 -0.578051 23.4737
614 1 -1.1104 9.33107 -0.385103 26.3336
599 1 -1.1104 12.131 2.33312 23.3543
601 1 -1.1104 12.1898 2.43915 26.257
607 1 -1.1104 9.33583 2.21683 23.5597
610 1 -1.1104 9.25693 2.40825 26.2715
612 2 2.2208 7.93863 3.73427 21.9315
604 2 2.2208 10.6526 3.78633 24.8994
9181 2 2.2208 13.3784 14.8749 27.7176
464 1 -1.1104 3.7011 5.1631 20.5004
450 1 -1.1104 0.838585 10.8565 20.6442
626 2 2.2208 5.0638 6.70244 21.8793
628 1 -1.1104 0.623325 7.81572 23.3531
630 1 -1.1104 0.860941 7.86256 26.201
632 1 -1.1104 0.908361 5.17436 23.462
637 1 -1.1104 0.742491 5.0128 26.3297
641 1 -1.1104 3.54302 7.94404 23.342
642 2 2.2208 2.15739 6.669 24.7837
644 1 -1.1104 3.44628 7.96712 26.2029
646 1 -1.1104 3.71827 5.20114 23.3314
648 1 -1.1104 3.57286 4.95612 26.098
627 2 2.2208 4.86662 12.098 21.9868
633 1 -1.1104 0.724318 10.6837 23.3661
636 2 2.2208 4.86037 9.32204 24.8318
638 1 -1.1104 0.6529 10.5784 26.0445
643 2 2.2208 2.16728 12.2272 24.7336
645 2 2.2208 2.11791 9.32821 21.9933
647 1 -1.1104 3.45474 10.6351 23.2226
649 1 -1.1104 3.53627 10.8337 26.0655
635 1 -1.1104 6.32076 10.5713 23.5343
639 1 -1.1104 6.47706 4.99118 26.1502
631 1 -1.1104 6.38075 7.90159 26.0827
634 1 -1.1104 6.64746 4.95955 23.3037
629 1 -1.1104 6.35801 7.81958 23.3964
9177 2 2.2208 13.4646 3.63117 27.5576
679 1 -1.1104 12.0435 16.3638 23.5392
530 2 2.2208 10.6102 20.5833 24.9373
9314 2 2.2208 13.4343 17.9637 24.9211
640 1 -1.1104 6.2607 10.6503 26.3306
9244 2 2.2208 13.5497 12.1826 24.7789
9507 2 2.2208 13.4604 9.25498 22.026
481 1 -1.1104 12.0888 10.8286 20.6311
9243 2 2.2208 13.6162 6.69694 24.8546
491 1 -1.1104 9.4713 5.26423 20.4939
658 1 -1.1104 9.29712 5.04635 26.4049
660 1 -1.1104 9.26523 5.1118 23.4757
662 1 -1.1104 9.35694 8.01612 26.3109
664 2 2.2208 7.83617 6.40924 24.8314
665 2 2.2208 10.9258 6.72526 21.9269
667 1 -1.1104 12.083 8.09329 23.487
668 1 -1.1104 12.2081 7.88509 26.2787
669 1 -1.1104 12.0922 5.28643 23.4413
672 1 -1.1104 12.0171 5.23474 26.3669
674 1 -1.1104 9.39899 7.92499 23.3178
657 1 -1.1104 9.21684 10.6174 26.0868
659 1 -1.1104 9.17038 10.7095 23.4897
661 2 2.2208 7.8521 9.2507 22.037
663 2 2.2208 7.68395 12.0858 24.7905
666 2 2.2208 10.7235 12.1676 22.1688
670 1 -1.1104 11.9351 10.8255 23.3547
671 2 2.2208 10.745 9.35994 24.8362
673 1 -1.1104 12.1668 10.8524 26.1519
621 2 2.2208 7.79528 -4.65547 24.8626
399 2 2.2208 7.75092 17.8674 24.823
524 1 -1.1104 3.59784 19.1231 20.6513
592 2 2.2208 2.10932 -4.73919 24.8575
400 1 -1.1104 6.32655 19.1242 26.1219
616 1 -1.1104 6.50362 13.4608 23.4357
676 1 -1.1104 6.40158 13.5156 26.248
515 1 -1.1104 0.903412 16.4549 20.5507
560 1 -1.1104 3.64953 13.7065 26.3426
596 1 -1.1104 0.879977 13.367 23.3199
625 1 -1.1104 0.831817 13.5869 26.129
675 1 -1.1104 3.51628 13.5432 23.533
531 2 2.2208 2.20973 14.8925 21.9962
532 2 2.2208 2.1811 20.4578 22.0392
557 1 -1.1104 3.6122 16.2925 23.2549
558 1 -1.1104 0.796728 16.1745 23.5251
585 1 -1.1104 3.57748 16.2548 26.2693
586 2 2.2208 2.15898 17.5894 24.86
587 1 -1.1104 3.64963 19.1205 26.1566
593 2 2.2208 4.91188 17.7949 22.1031
615 1 -1.1104 0.766534 19.0027 23.4764
617 2 2.2208 5.0491 14.9574 24.7671
622 2 2.2208 4.97325 20.6622 24.8599
650 1 -1.1104 0.642873 16.4535 26.347
651 1 -1.1104 0.694766 18.9718 26.3035
677 1 -1.1104 3.49481 19.1534 23.3983
624 1 -1.1104 6.40238 19.2755 23.3306
559 1 -1.1104 6.37087 16.3108 23.5548
9318 2 2.2208 13.5413 15.1298 22.1139
431 1 -1.1104 9.11626 13.4255 26.3649
537 1 -1.1104 12.0059 13.6171 20.6045
496 1 -1.1104 12.0247 16.5188 26.3124
655 1 -1.1104 12.1057 19.2429 23.7133
656 1 -1.1104 11.902 13.761 26.3457
468 1 -1.1104 9.10261 16.1946 23.6191
654 1 -1.1104 12.2516 13.5191 23.3984
469 1 -1.1104 9.24376 16.5052 26.2366
678 1 -1.1104 12.0974 19.1851 26.3194
494 1 -1.1104 9.30524 13.5049 23.4966
652 1 -1.1104 6.33925 16.3764 26.3033
653 2 2.2208 10.5233 17.8323 22.1966
432 1 -1.1104 9.15556 19.2087 26.253
9288 2 2.2208 13.4557 20.6948 21.9756
398 1 -1.1104 9.24856 19.2557 23.3636
9317 2 2.2208 13.586 12.3314 19.1831
353 2 2.2208 2.15732 9.43984 27.5085
352 2 2.2208 4.97936 6.6464 27.5407
333 2 2.2208 2.14188 15.0514 27.6064
9171 2 2.2208 13.5292 9.36781 27.6204
349 2 2.2208 13.3757 -1.8993 27.6401
348 2 2.2208 7.75621 3.74373 27.5682
345 2 2.2208 7.70638 14.9542 27.5297
355 2 2.2208 10.6745 6.62681 27.6661
392 2 2.2208 5.05992 -4.66398 16.4369
590 2 2.2208 5.03389 -4.68956 27.62
428 2 2.2208 7.99842 -4.64964 13.8075
337 2 2.2208 10.7735 20.6105 13.7592
335 2 2.2208 2.12149 20.4586 27.6291
331 2 2.2208 2.1362 17.8716 13.6681
356 2 2.2208 7.74341 9.29672 27.5081
619 2 2.2208 10.634 -4.77817 27.6809
357 2 2.2208 10.6137 12.1374 27.4547
334 2 2.2208 5.02945 17.7369 27.6125
681 2 2.2208 5.11513 23.2393 5.20492
683 1 -1.1104 0.841853 24.7937 0.935713
684 1 -1.1104 0.695869 24.8605 3.73343
685 1 -1.1104 0.879878 22.0412 1.14158
686 1 -1.1104 0.709934 27.516 0.759519
687 2 2.2208 5.05405 26.1703 2.38453
688 1 -1.1104 1.00758 22.1054 3.79723
689 1 -1.1104 0.718764 27.565 3.69243
690 1 -1.1104 3.7116 24.6849 0.986681
691 2 2.2208 2.3242 23.4669 2.37852
693 1 -1.1104 3.43592 24.7805 3.59801
694 2 2.2208 2.22107 26.1439 5.18385
695 1 -1.1104 3.69789 21.9959 0.916963
696 1 -1.1104 3.57534 27.6101 0.948998
697 1 -1.1104 3.79523 21.96 3.80033
698 1 -1.1104 3.80501 27.6169 3.66569
682 2 2.2208 5.10804 29.0314 5.22093
692 2 2.2208 2.12304 29.1315 2.22214
704 1 -1.1104 6.41674 21.8663 0.85874
703 1 -1.1104 6.40617 24.8469 3.66012
828 1 -1.1104 3.66886 24.8089 6.48822
707 1 -1.1104 6.56525 27.6441 3.76441
705 1 -1.1104 6.3644 27.536 1.10785
706 1 -1.1104 6.37538 21.9365 3.6369
702 1 -1.1104 6.51162 24.7298 0.819525
829 1 -1.1104 3.59762 22.1697 6.66499
827 1 -1.1104 6.46212 27.4859 6.57844
824 1 -1.1104 0.853523 22.0277 6.63136
826 1 -1.1104 6.50235 21.931 6.6049
825 1 -1.1104 0.711038 27.6896 6.48724
822 1 -1.1104 0.886826 24.7425 6.58732
995 1 -1.1104 6.70232 47.0532 12.1095
9863 2 2.2208 13.4905 23.54 2.31874
708 2 2.2208 10.6338 23.309 5.14579
710 1 -1.1104 12.1898 24.9142 0.753252
711 1 -1.1104 12.1348 24.8152 3.81582
712 1 -1.1104 12.233 22.1885 0.875478
713 1 -1.1104 12.0141 27.8047 0.711959
714 2 2.2208 10.6506 26.146 2.37053
715 1 -1.1104 12.0762 22.1122 3.74808
717 1 -1.1104 9.33632 24.7871 0.91667
718 2 2.2208 7.72849 23.387 2.34712
720 1 -1.1104 9.22804 24.5793 3.60589
721 2 2.2208 7.93482 26.2413 5.0889
722 1 -1.1104 9.34975 22.1518 0.880122
723 1 -1.1104 9.12986 27.6973 0.849882
724 1 -1.1104 9.30852 21.9246 3.70958
725 1 -1.1104 9.34234 27.5129 3.73459
709 2 2.2208 10.6948 28.9876 5.10001
716 1 -1.1104 12.0845 27.5886 3.68165
719 2 2.2208 7.68736 28.953 2.25241
857 1 -1.1104 12.0998 27.697 6.29885
859 1 -1.1104 9.17819 21.9992 6.55384
727 2 2.2208 13.3031 29.0466 2.30839
860 1 -1.1104 9.12208 27.5562 6.65145
1019 2 2.2208 13.2362 40.4489 13.5245
856 1 -1.1104 12.0371 22.0066 6.45109
855 1 -1.1104 12.1314 24.9359 6.679
858 1 -1.1104 9.39911 24.7386 6.55282
730 1 -1.1104 0.718511 30.3962 1.1111
733 1 -1.1104 0.831185 30.5723 3.78152
736 1 -1.1104 0.734916 33.1783 0.943216
737 2 2.2208 4.99989 31.8905 2.3097
739 1 -1.1104 0.813967 33.1278 3.76649
741 1 -1.1104 3.51378 30.3493 0.919936
744 1 -1.1104 3.61044 30.4475 3.82088
746 2 2.2208 2.32654 31.7264 5.14195
748 1 -1.1104 3.59889 33.0111 1.03122
749 1 -1.1104 3.77879 32.9774 3.86131
729 2 2.2208 5.09349 34.436 5.24334
731 1 -1.1104 0.72643 35.8442 0.969146
734 1 -1.1104 0.910522 35.9588 3.68816
738 2 2.2208 4.94438 37.4025 2.35447
742 1 -1.1104 3.5068 36.121 0.986265
743 2 2.2208 2.10412 34.5646 2.38869
745 1 -1.1104 3.65495 35.8195 3.73119
747 2 2.2208 2.31412 37.4355 5.08602
886 1 -1.1104 3.71336 36.0277 6.43768
887 1 -1.1104 3.58114 33.1861 6.74872
879 1 -1.1104 0.638668 30.4249 6.61166
732 1 -1.1104 6.3044 36.0951 1.00646
753 1 -1.1104 6.28507 30.3996 0.87951
735 1 -1.1104 6.30006 35.9753 3.68279
740 1 -1.1104 6.50056 33.0947 3.69607
754 1 -1.1104 6.31825 30.3739 3.82024
755 1 -1.1104 6.36344 33.4213 0.949293
885 1 -1.1104 3.54413 30.4065 6.5028
881 1 -1.1104 6.49073 30.4045 6.60188