ITEM: TIMESTEP
100000
ITEM: NUMBER OF ATOMS
17700
ITEM: BOX BOUNDS pp pp pp
-3.9901936999060167e-01 2.7739019369991095e+01
-4.9521308642557837e+00 3.3303213086425637e+02
-4.0286448242935663e-01 2.7742864482428882e+01
ITEM: ATOMS id type q x y z
1 2 2.2208 5.37381 0.472317 5.25686
2 1 -1.1104 1.10843 -3.76435 1.1678
6 1 -1.1104 1.16799 -3.64619 4.00525
10 1 -1.1104 1.22948 -0.904023 1.21861
12 2 2.2208 5.31124 -2.08467 2.41962
14 1 -1.1104 1.01676 -0.844587 3.87723
16 1 -1.1104 3.97381 -3.50293 1.07895
18 2 2.2208 2.62388 0.759195 2.54539
19 1 -1.1104 3.98875 -3.66398 3.92723
21 2 2.2208 2.52342 -2.33024 5.42392
23 1 -1.1104 3.91306 -0.53644 1.12211
24 1 -1.1104 3.86931 -0.830492 3.98419
3 1 -1.1104 1.27744 2.31961 1.26581
7 1 -1.1104 1.22569 1.8968 3.93671
17 1 -1.1104 4.07485 2.14536 0.980861
20 1 -1.1104 4.09228 2.01195 3.8844
13 2 2.2208 5.49894 3.35372 2.43386
22 2 2.2208 2.65142 3.29263 5.38693
9149 2 2.2208 -0.189108 3.54587 2.49992
25 2 2.2208 -0.374439 -2.28199 2.57756
8 1 -1.1104 6.81044 -3.6745 3.81161
15 1 -1.1104 6.64189 -0.828759 3.80888
11 1 -1.1104 6.81736 -0.771554 1.07285
347 2 2.2208 8.27189 -2.05665 -0.394047
9161 2 2.2208 -0.207037 3.29394 8.0921
26 2 2.2208 -0.26015 0.570286 5.2932
204 2 2.2208 -0.268158 -4.91834 10.8756
335 2 2.2208 2.62826 20.2378 -0.0396734
344 2 2.2208 -0.277674 0.488851 -0.188207
171 1 -1.1104 6.69265 -0.872273 6.65026
5 1 -1.1104 6.80073 2.06981 1.0434
4 1 -1.1104 6.74927 -3.66842 0.92767
9 1 -1.1104 6.97111 2.03594 3.74337
31 2 2.2208 10.9983 0.559648 5.43003
32 1 -1.1104 12.5456 -3.52492 1.12739
34 1 -1.1104 12.3522 -3.58523 3.96194
36 1 -1.1104 12.4537 -0.731641 1.22992
37 2 2.2208 11.043 -2.23143 2.67415
39 1 -1.1104 12.2835 -0.859071 3.99763
40 1 -1.1104 9.7102 -3.36216 0.985708
42 2 2.2208 8.22677 0.47511 2.44434
43 1 -1.1104 9.62121 -3.71337 3.88389
45 2 2.2208 8.31745 -2.27052 5.23113
47 1 -1.1104 9.5792 -0.7824 1.00911
48 1 -1.1104 9.53282 -0.814637 4.02618
33 1 -1.1104 12.3819 2.09318 1.06002
35 1 -1.1104 12.6681 2.11663 3.83038
41 1 -1.1104 9.53653 2.01877 1.11615
44 1 -1.1104 9.7955 2.09131 3.96586
38 2 2.2208 10.9637 3.46753 2.37394
46 2 2.2208 8.19349 3.45462 5.29788
51 2 2.2208 8.20996 -4.90055 2.42276
342 2 2.2208 2.65111 -2.15392 -0.365675
168 1 -1.1104 6.92129 -3.63452 6.63182
297 1 -1.1104 6.90264 13.3079 12.3146
352 2 2.2208 5.37162 6.3441 -0.0928542
232 2 2.2208 11.2085 -4.91219 10.9127
311 1 -1.1104 9.59454 13.2233 9.38627
333 2 2.2208 2.5794 14.6905 -0.249596
354 2 2.2208 5.58657 11.8091 -0.387862
54 2 2.2208 5.42515 6.22359 5.3459
56 1 -1.1104 1.03499 7.61295 1.0302
58 1 -1.1104 1.14627 7.56904 3.84107
60 1 -1.1104 1.1843 4.91038 1.0553
67 1 -1.1104 1.3548 4.7843 3.91846
71 1 -1.1104 3.91106 7.56766 1.20081
72 2 2.2208 2.5555 6.13341 2.60821
74 1 -1.1104 3.97499 7.58563 4.04032
76 1 -1.1104 3.98746 4.9002 1.1899
79 1 -1.1104 4.12428 4.86887 4.01338
55 2 2.2208 5.51996 12.025 5.22393
61 1 -1.1104 1.23237 10.4237 1.16269
66 2 2.2208 5.33668 9.02236 2.63059
68 1 -1.1104 1.26327 10.4686 3.90681
73 2 2.2208 2.6113 11.7624 2.45099
75 2 2.2208 2.7381 8.99853 5.37672
77 1 -1.1104 4.00406 10.3367 1.07343
80 1 -1.1104 4.02405 10.5249 4.00251
353 2 2.2208 2.66583 9.00864 -0.246571
9152 2 2.2208 -0.347352 6.23704 5.47388
9153 2 2.2208 -0.234611 9.0556 2.5014
9079 2 2.2208 -0.0718092 9.01742 8.37341
9154 2 2.2208 -0.127486 11.8319 5.43358
351 2 2.2208 8.15721 20.3512 -0.259859
619 2 2.2208 11.1243 -4.84166 -0.325213
64 1 -1.1104 6.87373 10.4855 1.06899
63 1 -1.1104 6.76816 4.9154 1.02554
69 1 -1.1104 6.79442 4.6984 3.79246
70 1 -1.1104 6.64604 10.5221 3.86387
59 1 -1.1104 6.58932 7.6386 3.87637
57 1 -1.1104 6.76263 7.67864 1.28024
84 2 2.2208 10.987 6.27768 5.2912
86 1 -1.1104 12.3821 7.54949 1.07583
87 1 -1.1104 12.3744 7.60852 4.02491
88 1 -1.1104 12.4602 5.00866 1.07658
92 1 -1.1104 12.3983 4.93115 3.85174
94 1 -1.1104 9.61102 7.51235 1.05983
95 2 2.2208 8.16291 6.24518 2.57914
97 1 -1.1104 9.69162 7.68453 3.77337
99 1 -1.1104 9.62018 4.85979 1.05851
102 1 -1.1104 9.47254 5.0875 3.99561
85 2 2.2208 11.232 11.8615 5.19607
89 1 -1.1104 12.4567 10.5696 0.950913
91 2 2.2208 11.0753 8.81562 2.39185
93 1 -1.1104 12.3483 10.4318 3.74371
96 2 2.2208 8.38748 11.8928 2.34438
98 2 2.2208 8.17491 9.18939 5.16943
100 1 -1.1104 9.73991 10.4222 0.989207
103 1 -1.1104 9.56329 10.4048 3.71802
348 2 2.2208 8.21024 3.46895 -0.222396
355 2 2.2208 10.9711 6.22405 -0.350245
9159 2 2.2208 -0.313438 17.534 5.27341
9158 2 2.2208 -0.367178 20.3013 2.43568
334 2 2.2208 5.32701 17.3796 -0.289249
107 1 -1.1104 1.15517 13.2434 0.920889
113 1 -1.1104 1.13664 13.1412 3.85495
123 1 -1.1104 4.16684 13.243 1.00261
128 1 -1.1104 3.8992 13.4685 3.72266
106 2 2.2208 5.38044 17.5791 5.32621
109 1 -1.1104 1.25185 18.7269 1.17483
114 1 -1.1104 1.07941 18.8886 3.69506
116 1 -1.1104 1.21298 15.9773 1.53245
119 2 2.2208 5.47318 14.6629 2.48348
120 2 2.2208 5.60129 20.4903 2.73367
121 1 -1.1104 1.15154 16.1554 4.07508
125 1 -1.1104 4.02708 18.9201 1.24062
127 2 2.2208 2.61447 17.4646 2.63973
129 1 -1.1104 3.87197 18.9259 4.02893
130 2 2.2208 2.60402 14.7421 5.23459
131 2 2.2208 2.58669 20.2775 5.38617
132 1 -1.1104 3.87755 16.1281 1.13687
134 1 -1.1104 4.09876 16.0795 3.89506
140 1 -1.1104 6.79588 16.0459 1.04408
9165 2 2.2208 -0.248535 14.7276 8.16339
81 1 -1.1104 12.3425 13.2512 12.3819
9157 2 2.2208 -0.251215 14.6508 2.56701
9168 2 2.2208 -0.273719 17.4143 -0.230632
138 1 -1.1104 6.84456 18.9506 1.27245
110 1 -1.1104 6.73418 13.3632 1.04359
345 2 2.2208 8.19502 14.7017 -0.231756
115 1 -1.1104 7.15444 13.5787 3.69555
139 1 -1.1104 6.71194 19.1254 4.09144
122 1 -1.1104 6.94043 16.498 3.96514
142 1 -1.1104 12.3803 13.1524 0.889631
146 1 -1.1104 12.3695 13.281 3.78368
153 1 -1.1104 9.57193 13.3111 1.00278
158 1 -1.1104 9.89815 13.3792 3.70877
141 2 2.2208 11.0898 17.3492 5.20082
144 1 -1.1104 12.1704 18.8908 1.10283
147 1 -1.1104 12.5327 18.945 3.94624
148 1 -1.1104 12.3007 16.1046 1.09414
150 2 2.2208 11.1426 14.564 2.28961
151 2 2.2208 11.1213 20.323 2.49529
152 1 -1.1104 12.6503 15.9824 3.85019
155 1 -1.1104 9.54514 19.1009 1.14302
157 2 2.2208 8.2111 17.5799 2.48452
159 1 -1.1104 9.68897 18.8141 3.97873
160 2 2.2208 8.26807 14.8199 5.14137
161 2 2.2208 8.20284 20.4228 5.49236
162 1 -1.1104 9.65456 15.9455 0.994758
164 1 -1.1104 9.7113 16.1376 3.7176
145 1 -1.1104 12.486 18.8775 6.65953
83 1 -1.1104 12.2094 13.3381 9.59824
172 1 -1.1104 3.9339 -3.88883 6.90199
167 1 -1.1104 1.13646 1.9651 6.73029
170 1 -1.1104 1.10385 -0.783151 6.75797
173 1 -1.1104 3.8385 1.69829 6.58553
174 1 -1.1104 4.04857 -1.02986 6.74337
166 1 -1.1104 1.17404 -3.66643 6.87484
175 2 2.2208 5.55105 0.632932 10.8842
176 1 -1.1104 1.02972 -3.77456 12.4222
180 1 -1.1104 1.18489 -3.54934 9.53623
184 1 -1.1104 1.16831 -0.911 12.6367
186 2 2.2208 5.37805 -2.32809 8.24574
188 1 -1.1104 1.00418 -0.729817 9.58346
190 1 -1.1104 3.92416 -3.70895 12.328
192 2 2.2208 2.41593 0.511557 8.16095
193 1 -1.1104 3.94144 -3.64327 9.67955
195 2 2.2208 2.56536 -2.22222 11.0546
197 1 -1.1104 3.9036 -0.879422 12.3544
198 1 -1.1104 3.98188 -0.64167 9.5633
177 1 -1.1104 1.14165 2.16267 12.3056
181 1 -1.1104 1.37163 2.17993 9.49791
191 1 -1.1104 3.98536 1.95537 12.3092
194 1 -1.1104 3.91226 1.99253 9.51247
196 2 2.2208 2.39552 3.56524 11.1021
187 2 2.2208 5.13593 3.22006 7.99377
201 2 2.2208 -0.34297 0.435867 11.0999
156 1 -1.1104 9.59871 18.8143 6.7968
189 1 -1.1104 6.79634 -0.965753 9.42826
200 2 2.2208 -0.340869 -2.21628 8.26488
82 1 -1.1104 12.5244 18.8315 12.1781
206 1 -1.1104 12.3196 1.92009 6.60088
209 1 -1.1104 9.66323 1.82492 6.77138
208 1 -1.1104 9.74628 -3.64591 6.55915
169 1 -1.1104 6.78128 1.99083 6.59954
210 1 -1.1104 9.41217 -0.94825 6.90978
205 1 -1.1104 12.5331 -3.62663 6.91733
182 1 -1.1104 6.8525 -3.73314 9.72903
183 1 -1.1104 6.70741 1.87405 9.43271
185 1 -1.1104 6.93384 -0.824517 12.3048
207 1 -1.1104 12.391 -0.904014 6.69315
179 1 -1.1104 6.76346 2.07897 12.3126
178 1 -1.1104 6.91881 -3.69125 12.5454
211 2 2.2208 10.8438 0.661656 10.8843
212 1 -1.1104 12.4492 -3.39503 12.4569
214 1 -1.1104 12.7292 -3.74944 9.5549
216 1 -1.1104 12.4524 -0.630542 12.2715
217 2 2.2208 11.1493 -2.25906 8.09102
219 1 -1.1104 12.4327 -0.740327 9.45958
220 1 -1.1104 9.6574 -3.37486 12.364
222 2 2.2208 8.04542 0.586128 8.13369
223 1 -1.1104 9.82785 -3.6016 9.60925
225 2 2.2208 8.20859 -2.1743 10.9197
227 1 -1.1104 9.57842 -0.757607 12.486
228 1 -1.1104 9.34905 -0.680312 9.76376
213 1 -1.1104 12.2988 2.18299 12.2277
215 1 -1.1104 12.2575 2.13121 9.3968
221 1 -1.1104 9.53553 2.01417 12.3524
224 1 -1.1104 9.3937 2.126 9.51743
218 2 2.2208 10.8851 3.53666 8.13862
226 2 2.2208 8.19208 3.40729 10.8223
315 1 -1.1104 9.48383 16.2809 12.3028
238 1 -1.1104 4.11257 7.57979 7.03058
9072 2 2.2208 -0.0804099 11.9762 10.9376
9080 2 2.2208 -0.201006 6.24956 10.9012
9164 2 2.2208 -0.211738 17.7131 10.8907
78 1 -1.1104 4.33647 10.4299 6.7142
62 1 -1.1104 1.37401 10.5266 6.98552
239 1 -1.1104 4.06256 4.78537 6.76972
234 1 -1.1104 1.36493 7.54534 6.72265
236 1 -1.1104 1.01861 4.80504 6.85715
240 2 2.2208 5.44296 6.25256 11.0865
242 1 -1.1104 1.21347 7.68735 12.3734
244 1 -1.1104 1.24401 7.47686 9.57366
246 1 -1.1104 1.31779 4.95272 12.4164
251 1 -1.1104 1.06264 4.84303 9.58511
255 1 -1.1104 4.17609 7.81386 12.431
256 2 2.2208 2.57948 6.10812 8.24009
258 1 -1.1104 4.06853 7.6394 9.63624
260 1 -1.1104 4.00855 4.8814 12.529
262 1 -1.1104 4.06034 4.92545 9.57539
241 2 2.2208 5.55027 11.884 10.8814
247 1 -1.1104 1.30983 10.5039 12.402
250 2 2.2208 5.55341 8.98204 8.15173
252 1 -1.1104 1.16525 10.4137 9.69951
257 2 2.2208 2.72456 11.8699 8.33502
259 2 2.2208 2.72861 8.98619 11.0457
261 1 -1.1104 4.14246 10.4434 12.3821
263 1 -1.1104 4.00301 10.4623 9.4558
229 2 2.2208 8.28588 17.4295 8.08827
235 1 -1.1104 6.73032 7.6271 6.64468
237 1 -1.1104 6.74275 4.77357 6.56931
65 1 -1.1104 7.05032 10.3903 6.60803
266 1 -1.1104 12.3593 4.76057 6.67003
269 1 -1.1104 9.65082 5.01043 6.81776
267 1 -1.1104 9.37171 7.68161 6.63704
265 1 -1.1104 12.2317 7.54945 6.81207
90 1 -1.1104 12.4641 10.4064 6.75034
101 1 -1.1104 9.77725 10.4453 6.49499
248 1 -1.1104 6.89009 4.82246 12.3934
249 1 -1.1104 6.79956 10.5436 12.3185
253 1 -1.1104 6.73516 4.8175 9.36122
245 1 -1.1104 6.95588 7.59392 9.70448
254 1 -1.1104 7.01016 10.488 9.45347
243 1 -1.1104 6.90898 7.58668 12.4551
268 1 -1.1104 9.5075 4.89215 9.50605
271 1 -1.1104 9.81911 4.86799 12.3996
273 1 -1.1104 9.69255 7.50035 9.53577
275 2 2.2208 8.09562 6.12121 7.9675
276 2 2.2208 11.1584 6.25548 10.8425
278 1 -1.1104 12.5105 7.68264 12.2232
279 1 -1.1104 12.409 7.5037 9.44134
280 1 -1.1104 12.4493 4.90519 12.3283
283 1 -1.1104 12.406 4.7765 9.46072
285 1 -1.1104 9.54856 7.84518 12.4155
264 1 -1.1104 9.70018 10.2988 9.48494
270 1 -1.1104 9.85606 10.4478 12.2232
272 2 2.2208 8.40544 9.08537 10.7869
274 2 2.2208 8.26963 11.8597 8.0039
277 2 2.2208 11.0265 11.7789 10.8161
281 1 -1.1104 12.4845 10.3878 12.3957
282 2 2.2208 10.9834 9.1181 8.11259
284 1 -1.1104 12.353 10.4896 9.50602
9163 2 2.2208 -0.11318 20.2522 8.16901
133 1 -1.1104 4.04328 16.1918 6.62399
117 1 -1.1104 1.10779 16.1109 6.91505
124 1 -1.1104 3.96383 13.3143 6.50913
126 1 -1.1104 4.07235 19.0396 6.76547
302 1 -1.1104 1.15156 18.9597 6.59242
199 1 -1.1104 9.82188 18.8772 12.096
9176 2 2.2208 -0.0877988 11.7227 -0.30896
108 1 -1.1104 1.25798 13.4717 6.82609
287 1 -1.1104 4.02993 13.1349 12.3684
294 1 -1.1104 1.37331 13.3386 9.68004
299 1 -1.1104 1.17269 13.3996 12.6078
305 1 -1.1104 4.0724 13.2227 9.52474
310 2 2.2208 2.73381 14.755 11.0797
286 1 -1.1104 4.06563 19.0105 12.3078
291 1 -1.1104 1.28209 19.057 9.5393
292 1 -1.1104 1.32642 16.0459 9.76367
293 2 2.2208 5.4309 20.4364 8.15458
295 2 2.2208 5.37993 14.6963 8.12399
298 1 -1.1104 1.34225 19.0679 12.5233
300 2 2.2208 5.57323 17.5888 10.9816
301 1 -1.1104 4.06133 18.8926 9.52688
303 2 2.2208 2.62469 17.5363 8.15231
304 1 -1.1104 4.15265 16.15 9.42762
307 1 -1.1104 1.18975 16.158 12.5298
308 1 -1.1104 3.92653 16.1636 12.2796
309 2 2.2208 2.71589 20.319 11.1145
111 1 -1.1104 6.69375 13.0938 6.79114
112 1 -1.1104 6.75646 18.969 6.81981
118 1 -1.1104 6.87325 15.9752 6.62155
154 1 -1.1104 9.54542 13.3079 6.54651
163 1 -1.1104 9.55594 16.0642 6.7096
149 1 -1.1104 12.5115 16.0322 6.83622
143 1 -1.1104 12.4053 13.293 6.83647
165 1 -1.1104 9.79058 13.2322 12.3627
104 1 -1.1104 12.38 18.8532 9.53665
296 1 -1.1104 6.84476 19.0909 12.5765
306 1 -1.1104 6.72435 16.2861 12.4567
289 1 -1.1104 6.77196 16.2063 9.52504
135 2 2.2208 11.1947 14.71 8.0961
27 2 2.2208 11.2032 17.3367 10.7749
312 1 -1.1104 9.79292 18.8469 9.49669
290 1 -1.1104 6.81884 13.4236 9.55073
288 1 -1.1104 6.92669 18.783 9.5091
136 2 2.2208 11.0277 20.1688 8.05119
314 1 -1.1104 9.85414 16.0472 9.53627
137 1 -1.1104 12.6876 16.0163 9.67663
316 2 2.2208 8.30607 20.3059 10.8497
313 2 2.2208 8.26806 14.7682 10.8638
105 1 -1.1104 12.2729 16.0729 12.4053
9162 2 2.2208 13.652 0.676139 8.20574
356 2 2.2208 8.19489 8.93365 -0.286168
343 2 2.2208 2.54573 3.46928 -0.300033
9173 2 2.2208 -0.236213 6.37434 -0.28664
9178 2 2.2208 -0.216443 3.53477 13.6405
337 2 2.2208 11.1295 20.1301 13.6233
358 2 2.2208 5.38892 0.463299 16.5198
359 1 -1.1104 1.04934 -3.59551 17.974
363 1 -1.1104 1.39012 -3.48902 15.3453
371 1 -1.1104 0.882372 -0.66413 17.9251
373 2 2.2208 5.20707 -2.16121 19.5617
375 1 -1.1104 1.09363 -0.745969 15.2948
379 1 -1.1104 3.91462 -3.54676 17.9785
381 2 2.2208 2.48179 0.721363 19.4506
382 1 -1.1104 3.95223 -3.53492 15.3076
386 2 2.2208 2.62591 -2.12017 16.6006
388 1 -1.1104 3.69991 -0.886864 18.1828
389 1 -1.1104 4.0286 -0.827015 15.28
360 1 -1.1104 1.18171 2.18644 17.8997
365 1 -1.1104 1.30132 2.02224 14.9888
380 1 -1.1104 3.90506 1.96961 17.9476
384 1 -1.1104 3.91398 1.92733 15.1465
374 2 2.2208 5.30589 3.26592 19.4291
387 2 2.2208 2.60768 3.56086 16.6084
592 2 2.2208 2.55696 -4.92921 25.2814
395 2 2.2208 -0.269035 -2.07045 19.3356
330 2 2.2208 8.22964 11.8605 13.7345
362 1 -1.1104 6.70111 1.96914 17.9795
9286 2 2.2208 -0.209618 9.09679 24.9775
426 2 2.2208 11.087 -4.89566 16.592
385 1 -1.1104 3.8241 2.01371 20.8788
9284 2 2.2208 -0.212807 3.61911 19.249
321 2 2.2208 5.42978 3.25912 13.7537
320 2 2.2208 2.53328 0.724116 13.7472
323 2 2.2208 10.8551 -2.06303 13.8487
367 1 -1.1104 6.77428 -3.49289 15.2755
369 1 -1.1104 6.91807 2.10752 15.0873
377 1 -1.1104 6.8662 -0.687251 15.273
372 1 -1.1104 6.68828 -0.901011 18.0309
361 1 -1.1104 6.80725 -3.52677 18.2132
401 2 2.2208 11.09 0.559068 16.7417
402 1 -1.1104 12.3813 -3.64325 18.1948
404 1 -1.1104 12.4212 -3.39691 15.24
408 1 -1.1104 12.2374 -0.894871 18.0346
409 2 2.2208 10.9357 -2.32303 19.4647
411 1 -1.1104 12.5686 -0.472237 15.156
413 1 -1.1104 9.52232 -3.49613 18.1274
415 2 2.2208 8.19234 0.578428 19.5594
416 1 -1.1104 9.81309 -3.58422 15.2586
420 2 2.2208 8.26152 -2.16713 16.7098
422 1 -1.1104 9.46464 -0.915359 18.1069
423 1 -1.1104 9.59486 -0.765527 15.3207
403 1 -1.1104 12.54 1.81248 18.0363
406 1 -1.1104 12.2776 1.98277 15.2524
414 1 -1.1104 9.70575 2.05443 17.9928
418 1 -1.1104 9.64517 1.9267 15.1519
421 2 2.2208 8.27811 3.45698 16.6073
410 2 2.2208 11.0958 3.43466 19.2944
417 1 -1.1104 9.64545 -3.68083 20.8253
378 1 -1.1104 6.61934 -0.8348 20.8282
412 1 -1.1104 12.2618 -0.74614 20.7781
405 1 -1.1104 12.5662 -3.61301 20.8071
322 2 2.2208 8.15561 0.592104 13.7522
9197 2 2.2208 -0.126596 20.3799 13.8196
326 2 2.2208 5.56199 9.08647 13.9807
331 2 2.2208 2.64341 17.6191 13.7574
434 2 2.2208 5.42983 6.2143 16.7451
436 1 -1.1104 1.27003 7.84584 17.8988
438 1 -1.1104 1.22617 7.69634 15.0622
442 1 -1.1104 1.24573 5.11093 18.0952
447 1 -1.1104 1.20912 4.85924 15.2892
455 1 -1.1104 3.89012 7.84135 17.8695
456 2 2.2208 2.6537 6.38723 19.3463
458 1 -1.1104 4.21805 7.75122 15.248
461 1 -1.1104 4.16237 4.83167 18.0784
463 1 -1.1104 4.01213 4.84923 15.3924
435 2 2.2208 5.50314 11.8179 16.5463
443 1 -1.1104 1.30272 10.5617 17.9267
446 2 2.2208 5.47594 9.13006 19.4427
449 1 -1.1104 1.06873 10.4658 15.153
457 2 2.2208 2.62261 11.8198 19.3666
460 2 2.2208 2.64581 9.2039 16.5999
462 1 -1.1104 3.85737 10.4253 18.0806
465 1 -1.1104 3.94878 10.5194 15.2936
9357 2 2.2208 -0.175861 6.49205 16.4706
327 2 2.2208 2.61107 11.7061 13.8208
9356 2 2.2208 -0.108494 9.16884 19.4949
9322 2 2.2208 -0.059549 12.0065 16.6679
328 2 2.2208 8.21254 6.23526 13.8949
440 1 -1.1104 6.8154 7.69495 15.2933
453 1 -1.1104 6.81795 10.5732 15.3253
444 1 -1.1104 6.8618 4.76099 18.0923
451 1 -1.1104 6.81918 4.83955 15.2626
445 1 -1.1104 6.80671 10.4617 18.0355
437 1 -1.1104 6.8418 7.57229 17.9743
470 2 2.2208 11.1422 6.20705 16.4611
472 1 -1.1104 12.5825 7.32456 18.0549
473 1 -1.1104 12.437 7.67447 15.0878
475 1 -1.1104 12.3791 4.78125 17.8688
478 1 -1.1104 12.5347 4.78709 14.982
482 1 -1.1104 9.70564 7.71795 18.0498
483 2 2.2208 8.06918 6.25829 19.4852
485 1 -1.1104 9.60782 7.57139 15.1442
488 1 -1.1104 9.4899 4.89524 17.9153
490 1 -1.1104 9.6787 4.81485 15.1683
471 2 2.2208 11.0442 11.7455 16.6302
476 1 -1.1104 12.1917 10.1814 17.9683
477 2 2.2208 11.0203 8.91839 19.6022
480 1 -1.1104 12.4731 10.3942 15.1154
484 2 2.2208 8.34553 11.9715 19.4326
487 2 2.2208 8.1776 9.05263 16.6558
489 1 -1.1104 9.51678 10.4205 18.063
492 1 -1.1104 9.6728 10.3782 15.0142
9535 2 2.2208 -0.253149 6.33572 22.1406
9285 2 2.2208 -0.344203 11.8647 22.1479
317 2 2.2208 -0.0883007 -2.34585 13.8771
332 2 2.2208 5.4074 20.3773 13.8991
9426 2 2.2208 -0.259933 20.3427 19.5541
498 1 -1.1104 1.24976 13.3536 18.1773
502 1 -1.1104 1.18535 13.2373 15.352
518 1 -1.1104 4.15365 13.3287 18.0851
521 1 -1.1104 4.08619 13.2397 15.2508
497 2 2.2208 5.37536 17.6887 16.7078
499 1 -1.1104 1.04762 18.8938 18.0057
504 1 -1.1104 1.12214 19.0154 15.2903
510 1 -1.1104 1.2356 16.1407 18.067
512 2 2.2208 5.49021 14.6985 19.4984
513 2 2.2208 5.4055 20.4144 19.616
514 1 -1.1104 1.1601 16.156 15.4048
519 1 -1.1104 3.90283 18.9122 17.9907
520 2 2.2208 2.54153 17.5301 19.4357
523 1 -1.1104 3.97652 18.8847 15.2693
525 2 2.2208 2.63903 14.6939 16.545
526 2 2.2208 2.42011 20.2739 16.7714
527 1 -1.1104 4.0171 16.0814 17.984
528 1 -1.1104 3.82032 15.9339 15.0349
9427 2 2.2208 -0.218903 14.7662 19.4061
336 2 2.2208 5.47069 14.7111 13.7988
9428 2 2.2208 -0.282006 17.5004 16.5949
325 2 2.2208 2.72801 6.45631 13.7752
399 2 2.2208 8.10193 17.7542 25.015
516 1 -1.1104 6.8056 16.0543 15.2743
394 2 2.2208 -0.179443 0.815422 16.4185
511 1 -1.1104 6.79421 16.127 18.0326
508 1 -1.1104 6.78132 18.9365 15.2785
506 1 -1.1104 6.90368 13.1706 15.0459
501 1 -1.1104 6.8056 18.743 18.1751
500 1 -1.1104 6.83892 13.1629 18.0363
534 1 -1.1104 12.4464 13.2206 17.9019
536 1 -1.1104 12.3458 13.0623 15.1952
545 1 -1.1104 9.6627 13.3848 17.9758
548 1 -1.1104 9.56757 13.0329 15.3234
533 2 2.2208 11.0909 17.4903 16.4962
535 1 -1.1104 12.4036 18.834 18.0464
538 1 -1.1104 12.3923 18.8728 15.0001
540 1 -1.1104 12.2894 16.0054 17.8903
541 2 2.2208 11.0549 14.7418 19.3086
542 2 2.2208 11.0654 20.2462 19.4287
543 1 -1.1104 12.5533 15.9532 15.1741
546 1 -1.1104 9.71508 18.8243 17.8656
547 2 2.2208 8.12152 17.4919 19.3416
550 1 -1.1104 9.57677 18.6779 15.0306
552 2 2.2208 8.17122 14.6765 16.5466
553 2 2.2208 8.27333 20.2355 16.6316
554 1 -1.1104 9.56159 16.2093 17.7848
555 1 -1.1104 9.53767 15.7751 15.0262
591 2 2.2208 5.16624 -4.91356 22.2399
589 2 2.2208 -0.254825 -4.91053 22.2583
390 1 -1.1104 3.85918 -0.861366 20.9686
366 1 -1.1104 1.01029 1.99154 20.6181
9241 2 2.2208 -0.237716 17.5639 22.2268
376 1 -1.1104 1.12263 -0.746855 20.7479
364 1 -1.1104 1.11076 -3.53605 20.7793
9313 2 2.2208 -0.181666 3.46103 25.0713
594 2 2.2208 -0.3223 -2.08336 25.2278
9196 2 2.2208 -0.0377977 14.7341 13.9055
383 1 -1.1104 3.86161 -3.75984 20.8143
595 2 2.2208 -0.251662 0.554022 22.2249
561 2 2.2208 5.32601 0.524398 22.2804
562 1 -1.1104 0.953059 -3.65778 23.8986
566 1 -1.1104 1.12017 -3.33871 26.665
570 1 -1.1104 1.10451 -0.97938 23.6369
572 2 2.2208 5.33092 -2.27398 24.9373
574 1 -1.1104 1.2084 -0.840807 26.4694
576 1 -1.1104 3.73153 -3.50309 23.5382
578 2 2.2208 2.59457 0.576218 25.0544
579 1 -1.1104 4.07909 -3.61318 26.3414
581 2 2.2208 2.39577 -2.2437 22.3003
583 1 -1.1104 4.06439 -0.835971 23.6992
584 1 -1.1104 3.91214 -0.67137 26.5244
563 1 -1.1104 1.02297 1.99161 23.7674
567 1 -1.1104 1.26823 1.84626 26.5286
577 1 -1.1104 3.94301 1.95601 23.6324
580 1 -1.1104 4.09154 2.10921 26.3688
573 2 2.2208 5.43978 3.45762 25.1404
468 1 -1.1104 9.57549 16.0815 23.6278
370 1 -1.1104 6.8938 1.94747 20.818
575 1 -1.1104 6.77029 -0.713762 26.4088
368 1 -1.1104 6.82241 -3.62318 20.9339
419 1 -1.1104 9.49978 2.02855 20.8568
568 1 -1.1104 6.75976 -3.6555 26.2169
564 1 -1.1104 6.73831 -3.38199 23.6213
565 1 -1.1104 6.70789 2.1113 23.7827
407 1 -1.1104 12.3335 2.09605 20.8283
424 1 -1.1104 9.53636 -0.85535 20.9102
571 1 -1.1104 6.69827 -0.651824 23.6733
569 1 -1.1104 6.89 2.08507 26.3966
597 2 2.2208 11.0272 0.755231 22.2291
598 1 -1.1104 12.5625 -3.34991 23.6042
600 1 -1.1104 12.4364 -3.42685 26.5707
602 1 -1.1104 12.4802 -0.748337 23.4652
603 2 2.2208 11.1664 -2.12987 24.9501
605 1 -1.1104 12.5001 -0.620669 26.3415
606 1 -1.1104 9.56899 -3.68069 23.7493
608 2 2.2208 8.16808 0.699388 25.0525
609 1 -1.1104 9.63688 -3.56825 26.3745
611 2 2.2208 8.16514 -2.10635 22.2895
613 1 -1.1104 9.45304 -0.823206 23.6358
614 1 -1.1104 9.76285 -0.766941 26.5164
599 1 -1.1104 12.3191 2.1981 23.6416
601 1 -1.1104 12.4468 2.09983 26.4127
607 1 -1.1104 9.51851 1.9083 23.5603
610 1 -1.1104 9.47617 1.99811 26.5628
612 2 2.2208 8.04953 3.33428 22.2855
604 2 2.2208 10.9895 3.38431 25.042
9189 2 2.2208 -0.124193 9.14292 13.7135
494 1 -1.1104 9.50855 13.225 23.5635
338 2 2.2208 11.1151 14.552 13.7235
464 1 -1.1104 3.94514 4.94813 20.858
466 1 -1.1104 3.99469 10.4155 20.8095
439 1 -1.1104 1.19644 7.75776 20.8048
448 1 -1.1104 1.0489 4.68809 20.8322
450 1 -1.1104 1.11035 10.5168 20.8969
459 1 -1.1104 4.06881 7.64374 20.8086
582 2 2.2208 2.52463 3.39642 22.2385
626 2 2.2208 5.45884 6.22689 22.2871
628 1 -1.1104 1.19216 7.78315 23.6126
630 1 -1.1104 1.24325 7.58886 26.3858
632 1 -1.1104 1.11033 4.72138 23.6446
637 1 -1.1104 1.05599 4.84523 26.5497
641 1 -1.1104 3.99066 7.68832 23.7274
642 2 2.2208 2.663 6.31295 25.0962
644 1 -1.1104 4.07294 7.74633 26.5641
646 1 -1.1104 4.01879 4.76296 23.7565
648 1 -1.1104 3.92353 4.82433 26.4044
627 2 2.2208 5.49931 11.8182 22.3317
633 1 -1.1104 1.02435 10.5177 23.7468
636 2 2.2208 5.5091 9.2145 24.9444
638 1 -1.1104 1.15647 10.3868 26.5989
643 2 2.2208 2.61288 11.7877 25.1063
645 2 2.2208 2.53072 9.20407 22.3048
647 1 -1.1104 3.94134 10.4093 23.5599
649 1 -1.1104 3.88843 10.478 26.4772
629 1 -1.1104 6.74354 7.74802 23.7141
640 1 -1.1104 6.78396 10.2908 26.4495
639 1 -1.1104 6.95268 4.8693 26.4101
329 2 2.2208 10.9979 8.99228 13.7149
680 2 2.2208 10.9884 14.8167 24.9526
441 1 -1.1104 6.8701 7.575 21.111
452 1 -1.1104 6.61037 4.67243 20.8492
486 1 -1.1104 9.48275 7.53368 20.8192
493 1 -1.1104 9.62377 10.4154 20.7843
479 1 -1.1104 12.4991 4.90297 20.9302
491 1 -1.1104 9.78811 4.903 20.6346
474 1 -1.1104 12.4792 7.66232 20.9414
634 1 -1.1104 6.91046 4.80946 23.5587
454 1 -1.1104 6.93423 10.4497 20.876
481 1 -1.1104 12.5112 10.4483 20.657
631 1 -1.1104 6.91055 7.64859 26.5079
635 1 -1.1104 6.85359 10.4485 23.6585
658 1 -1.1104 9.77891 4.78924 26.4607
660 1 -1.1104 9.67228 4.80244 23.6126
662 1 -1.1104 9.50613 7.55751 26.5727
664 2 2.2208 8.1816 6.26902 24.9084
665 2 2.2208 11.1693 6.16344 22.3092
667 1 -1.1104 12.3439 7.61574 23.7806
668 1 -1.1104 12.3703 7.74962 26.4957
669 1 -1.1104 12.3754 4.83572 23.6599
672 1 -1.1104 12.3646 4.98711 26.4163
674 1 -1.1104 9.53706 7.69743 23.6357
657 1 -1.1104 9.51239 10.2799 26.4341
659 1 -1.1104 9.47004 10.5168 23.62
661 2 2.2208 8.25098 9.09182 22.2732
663 2 2.2208 8.28065 11.9547 25.0388
666 2 2.2208 10.8958 11.9793 22.1983
670 1 -1.1104 12.3116 10.5601 23.5456
671 2 2.2208 10.9337 8.9686 25.0304
673 1 -1.1104 12.3481 10.3419 26.3759
530 2 2.2208 11.1087 20.3951 25.1306
503 1 -1.1104 1.11495 13.1724 20.7603
522 1 -1.1104 4.06134 13.2308 20.8845
529 1 -1.1104 4.01468 16.099 20.8636
9242 2 2.2208 -0.0736027 14.7437 25.1718
505 1 -1.1104 1.39914 18.9281 20.875
524 1 -1.1104 3.94612 18.9264 20.9838
515 1 -1.1104 1.04582 16.249 20.7649
560 1 -1.1104 4.16073 13.2507 26.5248
596 1 -1.1104 1.09631 13.4241 23.6676
625 1 -1.1104 1.32947 13.3487 26.3351
675 1 -1.1104 4.21169 13.1845 23.7094
531 2 2.2208 2.68925 14.5794 22.1913
532 2 2.2208 2.57024 20.3524 22.2244
557 1 -1.1104 3.81995 16.0892 23.6627
558 1 -1.1104 1.10522 16.2814 23.8927
585 1 -1.1104 3.97198 15.9774 26.4486
586 2 2.2208 2.52169 17.6444 25.1898
587 1 -1.1104 4.06838 18.9888 26.5212
593 2 2.2208 5.27729 17.6569 22.2547
615 1 -1.1104 1.11827 19.1618 23.7483
617 2 2.2208 5.49622 14.6533 25.2095
622 2 2.2208 5.31351 20.4295 25.1938
650 1 -1.1104 1.32584 16.1796 26.7827
651 1 -1.1104 1.0607 18.8358 26.5439
677 1 -1.1104 3.81592 18.935 23.798
652 1 -1.1104 6.78504 16.2019 26.4519
495 2 2.2208 -0.24003 20.2765 25.151
655 1 -1.1104 12.4017 19.0854 23.6299
496 1 -1.1104 12.5312 16.2113 26.4689
653 2 2.2208 10.7778 17.6208 22.1929
551 1 -1.1104 9.64753 18.9948 20.7379
509 1 -1.1104 6.91289 18.833 20.9767
507 1 -1.1104 6.8905 13.285 20.7672
556 1 -1.1104 9.50458 16.2306 21.0289
549 1 -1.1104 9.57489 13.5868 20.7607
544 1 -1.1104 12.3623 16.269 20.6894
539 1 -1.1104 12.2736 18.916 20.9049
678 1 -1.1104 12.4044 18.9447 26.3272
624 1 -1.1104 6.61288 18.9935 23.6434
616 1 -1.1104 6.85473 13.2807 23.7754
559 1 -1.1104 6.67778 16.0974 23.5406
654 1 -1.1104 12.2739 13.4117 23.4105
679 1 -1.1104 12.2757 16.1151 23.5177
400 1 -1.1104 6.79935 18.9852 26.4784
517 1 -1.1104 6.87467 16.1171 20.8616
432 1 -1.1104 9.59016 18.8321 26.4944
467 2 2.2208 8.32743 20.4598 22.2424
676 1 -1.1104 6.98082 13.2207 26.6282
398 1 -1.1104 9.50232 18.995 23.5231
431 1 -1.1104 9.53538 13.2389 26.3484
656 1 -1.1104 12.4146 13.2649 26.4023
537 1 -1.1104 12.4108 13.3963 20.6692
433 2 2.2208 8.0621 14.6736 22.2771
469 1 -1.1104 9.56975 16.0807 26.3439
428 2 2.2208 8.25975 -4.90414 13.9147
357 2 2.2208 11.1119 11.7736 27.5572
341 2 2.2208 5.33237 0.837145 27.7397
346 2 2.2208 10.998 0.705377 27.715
350 2 2.2208 10.9557 17.3992 27.7324
324 2 2.2208 10.9581 3.34076 13.735
319 2 2.2208 5.45363 -2.27188 13.7265
339 2 2.2208 8.25502 17.5246 13.705
681 2 2.2208 5.44581 23.2012 5.46287
683 1 -1.1104 1.26259 24.4799 1.17357
684 1 -1.1104 1.08997 24.486 3.93917
685 1 -1.1104 1.11825 21.5878 1.31891
686 1 -1.1104 1.19762 27.3544 1.38536
687 2 2.2208 5.46084 26.0485 2.54742
688 1 -1.1104 1.22272 21.6944 4.11361
689 1 -1.1104 1.17761 27.3599 4.18629
690 1 -1.1104 4.00815 24.5726 1.35966
691 2 2.2208 2.58979 23.2154 2.67166
693 1 -1.1104 4.03439 24.6137 4.01487
694 2 2.2208 2.76255 25.9218 5.42198
695 1 -1.1104 4.0006 21.7444 1.22801
696 1 -1.1104 3.98849 27.4424 1.41828
697 1 -1.1104 4.12201 21.7816 4.07814
698 1 -1.1104 4.01177 27.2998 4.00887
682 2 2.2208 5.39236 28.8635 5.36081
692 2 2.2208 2.53637 28.9376 2.64201
1026 2 2.2208 8.24907 25.9217 -0.249185
9862 2 2.2208 -0.137385 23.1211 5.43229
9866 2 2.2208 -0.114205 45.9212 10.8884
1020 2 2.2208 5.31548 23.2494 -0.0834526
830 1 -1.1104 4.13874 27.5579 6.72103
701 2 2.2208 -0.172205 25.877 2.57389
801 2 2.2208 -0.123823 40.0706 5.26093
1021 2 2.2208 2.59233 25.9474 -0.0207158
9861 2 2.2208 -0.272674 28.8777 5.27729
706 1 -1.1104 6.91287 21.8505 4.16462
702 1 -1.1104 6.80227 24.6815 1.27774
703 1 -1.1104 6.81622 24.5597 4.00903
707 1 -1.1104 6.83422 27.4564 3.8101
704 1 -1.1104 6.782 21.8158 1.31935
705 1 -1.1104 6.81815 27.3735 1.18581
708 2 2.2208 11.1529 22.9041 5.32703
710 1 -1.1104 12.4802 24.6177 0.944447
711 1 -1.1104 12.3001 24.4405 3.85183
712 1 -1.1104 12.3962 21.7631 1.19074
713 1 -1.1104 12.4625 27.3477 0.958497
714 2 2.2208 10.8809 25.9755 2.49884
715 1 -1.1104 12.486 21.548 4.017
717 1 -1.1104 9.61583 24.5876 1.12365
718 2 2.2208 8.16312 23.2385 2.63271
720 1 -1.1104 9.44807 24.7177 4.03511
721 2 2.2208 8.20235 26.1208 5.43733
722 1 -1.1104 9.54079 21.8467 1.1153
723 1 -1.1104 9.58446 27.426 1.13074
724 1 -1.1104 9.59114 21.6999 3.88168
725 1 -1.1104 9.7441 27.4686 4.01186
709 2 2.2208 11.0026 28.7657 5.32595
716 1 -1.1104 12.3992 27.3633 3.57833
719 2 2.2208 8.30868 28.9038 2.57986
857 1 -1.1104 12.3736 27.3417 6.68748
1032 2 2.2208 5.47071 40.0251 -0.320482
1023 2 2.2208 -0.102816 28.7487 -0.186311
1029 2 2.2208 11.0479 28.8565 -0.333598
9742 2 2.2208 -0.116889 26.0058 8.09531
9804 2 2.2208 -0.16494 31.6708 8.21132
1034 2 2.2208 2.47088 31.6952 -0.159449
730 1 -1.1104 1.12785 30.1531 1.18462
733 1 -1.1104 1.33843 30.4248 4.01183
736 1 -1.1104 1.22165 32.9172 1.15051
737 2 2.2208 5.28121 31.6668 2.40741
739 1 -1.1104 0.937277 32.9588 3.84405
741 1 -1.1104 3.81204 30.3394 1.10847
744 1 -1.1104 4.0574 30.3296 3.94896
746 2 2.2208 2.64648 31.6144 5.33354
748 1 -1.1104 3.91855 32.9477 1.1496
749 1 -1.1104 3.89874 33.1368 3.91207
729 2 2.2208 5.30737 34.4933 5.33475
731 1 -1.1104 1.17001 35.6914 1.06051
734 1 -1.1104 0.993268 35.8897 3.80103
738 2 2.2208 5.33634 37.3063 2.48348
742 1 -1.1104 3.93282 35.7073 0.945436
743 2 2.2208 2.51378 34.4421 2.42236
745 1 -1.1104 3.93978 35.8571 3.85458
747 2 2.2208 2.53396 37.5057 5.42498
753 1 -1.1104 6.91791 30.2631 1.35109
740 1 -1.1104 6.74032 33.0835 3.93331
972 2 2.2208 0.053187 40.367 10.8965
800 2 2.2208 -0.186547 45.6179 5.42357
882 1 -1.1104 6.99743 35.9248 6.85156
1033 2 2.2208 2.72571 43.0921 -0.351385
732 1 -1.1104 6.7533 35.6434 1.31826
754 1 -1.1104 6.88912 30.3583 3.83048
9865 2 2.2208 -0.177411 37.3533 8.19907
735 1 -1.1104 6.82413 35.8878 4.07066
755 1 -1.1104 6.91404 32.9824 1.12856
757 1 -1.1104 12.2712 30.3009 0.989085
759 1 -1.1104 12.5832 30.2251 3.74713
761 1 -1.1104 12.5393 32.9669 1.51431
762 2 2.2208 11.073 31.7235 2.68925
764 1 -1.1104 12.3616 33.0171 4.25534
765 1 -1.1104 9.66721 30.2069 1.17475
768 1 -1.1104 9.68615 30.093 3.91463
770 2 2.2208 8.16258 31.5801 5.28228
772 1 -1.1104 9.90606 33.1857 1.44645
773 1 -1.1104 9.45794 32.9255 4.06818
756 2 2.2208 10.9233 34.5137 5.40739
758 1 -1.1104 12.3808 35.9012 1.13295
760 1 -1.1104 12.3994 35.9048 4.08038
763 2 2.2208 11.0679 37.2355 2.58075
766 1 -1.1104 9.46405 35.8493 1.10903