ITEM: TIMESTEP
20000
ITEM: NUMBER OF ATOMS
17700
ITEM: BOX BOUNDS pp pp pp
-4.0339822153116617e-01 2.7743398221531539e+01
-4.7684266213322566e+00 3.3284842662132678e+02
-3.9095400714691875e-01 2.7730954007146924e+01
ITEM: ATOMS id type q x y z
1 2 2.2208 5.29794 0.921895 5.23437
2 1 -1.1104 1.04043 -3.27367 1.02488
3 1 -1.1104 1.01011 2.28884 1.2706
6 1 -1.1104 1.08089 -3.28672 3.87195
7 1 -1.1104 1.02195 2.41491 3.91596
10 1 -1.1104 1.15201 -0.637898 0.985919
12 2 2.2208 5.30419 -1.99617 2.49147
13 2 2.2208 5.19651 3.61354 2.41783
14 1 -1.1104 1.19568 -0.496449 3.93899
16 1 -1.1104 3.58502 -3.29572 1.00842
17 1 -1.1104 3.80651 2.20625 1.04573
18 2 2.2208 2.48989 1.06187 2.481
19 1 -1.1104 3.78905 -3.34657 3.70488
20 1 -1.1104 3.85204 2.23672 3.92214
21 2 2.2208 2.62179 -1.8669 5.07334
22 2 2.2208 2.31291 3.69836 5.39289
23 1 -1.1104 3.93538 -0.528327 0.959318
24 1 -1.1104 3.93256 -0.450125 3.68086
52 2 2.2208 10.8809 -4.69908 5.24375
296 1 -1.1104 6.468 19.2731 12.0836
166 1 -1.1104 1.02453 -3.34941 6.62567
171 1 -1.1104 6.73253 -0.561481 6.71604
172 1 -1.1104 3.7932 -3.41867 6.54807
329 2 2.2208 10.8602 9.22861 13.7086
231 2 2.2208 7.97795 -4.82763 8.07553
8 1 -1.1104 6.52192 -3.33456 3.93388
9 1 -1.1104 6.56981 2.29156 3.93284
15 1 -1.1104 6.83633 -0.624317 3.92572
11 1 -1.1104 6.71656 -0.656018 1.26567
5 1 -1.1104 6.66202 2.27933 1.03999
4 1 -1.1104 6.81689 -3.33766 1.14017
31 2 2.2208 10.7877 0.7832 5.27302
32 1 -1.1104 12.1967 -3.35777 1.1488
33 1 -1.1104 12.4296 2.37882 1.03264
34 1 -1.1104 12.22 -3.28381 3.87053
35 1 -1.1104 12.2442 2.1231 3.78324
36 1 -1.1104 12.3874 -0.569173 1.00764
37 2 2.2208 10.7977 -1.96681 2.46984
38 2 2.2208 10.9791 3.79171 2.30013
39 1 -1.1104 12.4806 -0.620491 3.97623
40 1 -1.1104 9.49658 -3.20977 1.12421
41 1 -1.1104 9.59245 2.30069 1.05285
42 2 2.2208 8.09573 0.93493 2.6052
43 1 -1.1104 9.39307 -3.25432 3.89675
44 1 -1.1104 9.57716 2.37969 3.82247
45 2 2.2208 8.11521 -1.89924 5.2201
46 2 2.2208 8.12858 3.87327 5.31992
47 1 -1.1104 9.40616 -0.432384 0.999832
48 1 -1.1104 9.58596 -0.404491 3.75028
205 1 -1.1104 12.3713 -3.36797 6.66203
168 1 -1.1104 6.61459 -3.46206 6.61575
232 2 2.2208 10.8992 -4.79802 11.153
209 1 -1.1104 9.38881 2.10649 6.58259
619 2 2.2208 10.8462 -4.70392 -0.231131
200 2 2.2208 -0.402567 -1.87828 8.0677
54 2 2.2208 5.29638 6.52708 5.19059
55 2 2.2208 5.18438 12.1884 5.2959
56 1 -1.1104 0.880612 7.95606 0.963319
58 1 -1.1104 0.889503 7.82558 3.91928
60 1 -1.1104 0.982172 5.15905 1.22446
61 1 -1.1104 1.0536 10.5752 1.02814
66 2 2.2208 5.30206 9.29556 2.32121
67 1 -1.1104 1.06393 5.14969 4.00768
68 1 -1.1104 1.02986 10.6423 3.84089
71 1 -1.1104 3.92952 7.85498 1.10796
72 2 2.2208 2.41485 6.47121 2.44322
73 2 2.2208 2.46526 12.0618 2.47168
74 1 -1.1104 4.02122 8.00751 3.88406
75 2 2.2208 2.40515 9.37738 5.15315
76 1 -1.1104 3.72921 5.05983 1.08797
77 1 -1.1104 3.94987 10.7122 1.12669
79 1 -1.1104 3.74461 4.94719 3.83268
80 1 -1.1104 3.94842 10.7969 3.92495
201 2 2.2208 -0.346038 0.886717 11.0439
69 1 -1.1104 6.5342 5.13972 4.0716
70 1 -1.1104 6.74411 10.7 3.71437
234 1 -1.1104 0.915496 7.9288 6.80874
9149 2 2.2208 -0.3301 3.66124 2.51522
9062 2 2.2208 13.806 12.1928 7.93565
230 2 2.2208 13.683 -2.1665 10.9838
57 1 -1.1104 6.73473 7.99391 1.15635
63 1 -1.1104 6.66071 5.13847 1.13447
64 1 -1.1104 6.54059 10.7564 1.09927
59 1 -1.1104 6.7824 7.85913 3.81959
84 2 2.2208 10.9562 6.66256 5.24501
85 2 2.2208 10.9486 12.0556 5.1958
86 1 -1.1104 12.4949 7.89706 0.869946
87 1 -1.1104 12.4888 7.84555 3.86325
88 1 -1.1104 12.3512 5.1717 0.975807
89 1 -1.1104 12.2472 10.6438 0.919441
91 2 2.2208 10.9572 9.18609 2.33952
92 1 -1.1104 12.5012 5.04436 3.72141
93 1 -1.1104 12.3374 10.6573 3.72307
94 1 -1.1104 9.64073 7.9636 0.890197
95 2 2.2208 8.0661 6.58198 2.46109
96 2 2.2208 8.03485 12.0725 2.50464
97 1 -1.1104 9.6452 7.92145 3.82475
98 2 2.2208 7.99502 9.42441 5.28793
99 1 -1.1104 9.38245 5.13083 0.82454
100 1 -1.1104 9.30091 10.711 0.993866
102 1 -1.1104 9.63131 5.23433 3.67151
103 1 -1.1104 9.44642 10.6437 3.90819
104 1 -1.1104 12.3369 19.2368 9.62397
266 1 -1.1104 12.3316 5.162 6.55703
26 2 2.2208 -0.466091 0.896135 5.42959
106 2 2.2208 5.30773 17.5833 5.36822
107 1 -1.1104 1.15169 13.2747 0.977271
109 1 -1.1104 1.02018 19.0612 1.08634
113 1 -1.1104 1.06189 13.3153 3.91092
114 1 -1.1104 1.07729 19.1585 3.91286
116 1 -1.1104 1.11343 16.114 0.971776
119 2 2.2208 5.26258 14.971 2.48578
120 2 2.2208 5.15416 20.5766 2.39786
121 1 -1.1104 1.20225 16.3836 3.8647
123 1 -1.1104 3.80319 13.3941 1.37292
125 1 -1.1104 3.8394 18.988 0.883931
127 2 2.2208 2.58003 17.727 2.31916
128 1 -1.1104 3.75449 13.5923 4.00215
129 1 -1.1104 3.65756 19.1327 3.91013
130 2 2.2208 2.37699 14.76 5.28613
131 2 2.2208 2.4559 20.4859 5.19718
132 1 -1.1104 3.82325 16.2144 0.791911
134 1 -1.1104 3.79931 16.1498 3.65237
25 2 2.2208 -0.349346 -1.85193 2.51327
122 1 -1.1104 6.60956 16.2992 3.91398
348 2 2.2208 8.10005 3.64839 -0.507114
9159 2 2.2208 -0.298442 17.6954 5.12904
133 1 -1.1104 3.81013 16.2679 6.63825
302 1 -1.1104 1.23682 19.1388 6.70013
111 1 -1.1104 6.5964 13.4352 6.66588
321 2 2.2208 5.32445 3.57518 13.7231
8850 2 2.2208 13.6422 3.68784 5.27359
343 2 2.2208 2.54186 3.66926 -0.374631
110 1 -1.1104 6.56797 13.5638 0.960631
140 1 -1.1104 6.75703 16.3436 1.0252
138 1 -1.1104 6.52683 19.1667 1.03272
115 1 -1.1104 6.5636 13.4856 3.96461
139 1 -1.1104 6.66396 19.155 3.96282
141 2 2.2208 10.8555 17.7049 5.38985
142 1 -1.1104 12.4373 13.3692 1.01844
144 1 -1.1104 12.0252 18.9977 0.935222
146 1 -1.1104 12.282 13.4676 3.86126
147 1 -1.1104 12.0624 19.1027 3.89812
148 1 -1.1104 12.3003 16.1839 1.04072
150 2 2.2208 10.7434 14.8058 2.38553
151 2 2.2208 10.7951 20.5928 2.4982
152 1 -1.1104 12.1775 16.1843 3.80075
153 1 -1.1104 9.70496 13.3823 1.1074
155 1 -1.1104 9.27014 18.9754 1.28006
157 2 2.2208 7.97456 17.648 2.46934
158 1 -1.1104 9.38874 13.4699 3.9026
159 1 -1.1104 9.53142 19.069 3.93617
160 2 2.2208 8.01632 14.8041 5.3584
161 2 2.2208 7.93844 20.5768 5.24312
162 1 -1.1104 9.49723 16.1575 0.95928
164 1 -1.1104 9.2289 16.1668 3.87208
145 1 -1.1104 12.2848 19.3433 6.66685
143 1 -1.1104 12.3089 13.6666 6.69754
163 1 -1.1104 9.45752 16.2996 6.89547
342 2 2.2208 2.40631 -1.90609 -0.404895
167 1 -1.1104 0.918311 2.3439 6.70796
170 1 -1.1104 1.14642 -0.462549 6.89993
174 1 -1.1104 4.10542 -0.535776 6.48604
325 2 2.2208 2.38027 6.43863 13.6652
9072 2 2.2208 -0.376999 12.0928 10.9911
50 2 2.2208 13.729 -1.95023 5.31579
173 1 -1.1104 3.77997 2.28566 6.64152
311 1 -1.1104 9.56181 13.668 9.51828
175 2 2.2208 5.2419 0.773179 10.7425
176 1 -1.1104 0.880254 -3.43332 12.195
177 1 -1.1104 1.0364 2.16773 12.3484
180 1 -1.1104 1.03759 -3.35509 9.51851
181 1 -1.1104 1.05191 2.07951 9.47812
184 1 -1.1104 1.10482 -0.596968 12.2012
186 2 2.2208 5.18537 -1.96132 7.98942
187 2 2.2208 5.25506 3.64675 8.11935
188 1 -1.1104 0.706367 -0.690425 9.65747
190 1 -1.1104 3.85322 -3.43932 12.2812
191 1 -1.1104 3.83808 2.20721 12.0613
192 2 2.2208 2.3985 0.978692 8.02239
193 1 -1.1104 3.85303 -3.2075 9.49301
194 1 -1.1104 3.86108 2.36462 9.3845
195 2 2.2208 2.33143 -1.98401 10.7626
196 2 2.2208 2.5051 3.74067 10.8838
197 1 -1.1104 3.81258 -0.691973 12.0965
198 1 -1.1104 3.62549 -0.396396 9.14669
315 1 -1.1104 9.57586 16.3523 12.3616
189 1 -1.1104 6.65899 -0.688514 9.48328
233 2 2.2208 13.8109 -4.81483 8.15601
51 2 2.2208 8.0744 -4.7446 2.45479
9164 2 2.2208 -0.324664 17.7902 10.8532
339 2 2.2208 8.06402 17.6911 13.5414
149 1 -1.1104 12.2149 16.4599 6.55275
206 1 -1.1104 12.2063 2.34886 6.74081
169 1 -1.1104 6.65192 2.23082 6.64193
210 1 -1.1104 9.53361 -0.585784 6.61153
207 1 -1.1104 12.4019 -0.519158 6.68168
208 1 -1.1104 9.48941 -3.30397 6.55753
183 1 -1.1104 6.67685 2.0086 9.42909
178 1 -1.1104 6.5393 -3.2922 12.297
185 1 -1.1104 6.6369 -0.403644 12.1496
182 1 -1.1104 6.62355 -3.57282 9.47357
179 1 -1.1104 6.77059 2.32576 12.4409
211 2 2.2208 11.0009 0.843501 10.837
212 1 -1.1104 12.2022 -3.38903 12.4465
213 1 -1.1104 12.2952 2.22462 12.3186
214 1 -1.1104 12.2262 -3.65702 9.57685
215 1 -1.1104 12.4045 2.35312 9.55764
216 1 -1.1104 12.1663 -0.587291 12.2299
217 2 2.2208 10.83 -2.03176 8.05375
218 2 2.2208 10.8921 3.59377 8.09065
219 1 -1.1104 12.2528 -0.902174 9.41868
220 1 -1.1104 9.37652 -3.42372 12.3629
221 1 -1.1104 9.57965 2.02315 12.2004
222 2 2.2208 8.0731 0.835536 8.13332
223 1 -1.1104 9.46715 -3.42501 9.35289
224 1 -1.1104 9.39431 2.32942 9.18949
225 2 2.2208 8.00296 -2.01126 10.7107
226 2 2.2208 8.16785 3.54678 10.856
227 1 -1.1104 9.43341 -0.629262 12.3169
228 1 -1.1104 9.4283 -0.532408 9.4728
347 2 2.2208 8.014 -1.91223 -0.281451
9163 2 2.2208 -0.409608 20.5096 7.96648
78 1 -1.1104 3.68994 10.5513 6.76221
9161 2 2.2208 -0.362112 3.52239 8.0923
236 1 -1.1104 0.916587 5.19981 6.92223
62 1 -1.1104 0.95759 10.5636 6.57827
238 1 -1.1104 3.69637 7.99418 6.52815
9080 2 2.2208 -0.422706 6.32715 10.845
239 1 -1.1104 3.8506 5.04314 6.8399
240 2 2.2208 5.26885 6.41935 10.9071
241 2 2.2208 5.37024 12.0873 10.9174
242 1 -1.1104 0.992772 7.78921 12.3117
244 1 -1.1104 0.979816 7.82903 9.62195
246 1 -1.1104 1.01887 5.07445 12.199
247 1 -1.1104 1.3164 10.6019 12.232
250 2 2.2208 5.19178 9.29242 8.02227
251 1 -1.1104 0.965372 4.95431 9.52151
252 1 -1.1104 0.98201 10.5757 9.44278
255 1 -1.1104 3.83525 7.74768 12.3308
256 2 2.2208 2.42296 6.54293 8.13056
257 2 2.2208 2.51003 12.0486 8.1789
258 1 -1.1104 3.89091 7.81309 9.45492
259 2 2.2208 2.47105 9.24074 10.8002
260 1 -1.1104 3.9598 5.01473 12.3868
261 1 -1.1104 4.00054 10.5981 12.1535
262 1 -1.1104 3.89168 5.13794 9.5545
263 1 -1.1104 3.75215 10.6675 9.48567
237 1 -1.1104 6.72605 4.93141 6.7443
253 1 -1.1104 6.56438 4.97664 9.58819
9079 2 2.2208 -0.390909 9.28986 8.09521
331 2 2.2208 2.50916 17.7195 13.7605
267 1 -1.1104 9.5225 7.90194 6.61649
265 1 -1.1104 12.3269 7.99281 6.73569
90 1 -1.1104 12.4057 10.7062 6.59127
269 1 -1.1104 9.46523 5.15369 6.68097
353 2 2.2208 2.53577 9.22672 -0.406261
235 1 -1.1104 6.64874 7.8741 6.6051
248 1 -1.1104 6.64032 5.06114 12.3688
65 1 -1.1104 6.4478 10.5428 6.6479
101 1 -1.1104 9.62793 10.6511 6.48191
249 1 -1.1104 6.68454 10.6054 12.2883
245 1 -1.1104 6.65969 7.85652 9.38823
254 1 -1.1104 6.79982 10.7244 9.53578
243 1 -1.1104 6.73691 7.82027 12.4072
264 1 -1.1104 9.40055 10.71 9.5512
268 1 -1.1104 9.34437 5.12794 9.67072
270 1 -1.1104 9.53238 10.5913 12.1956
271 1 -1.1104 9.5021 4.93445 12.3584
272 2 2.2208 8.19509 9.22856 10.9395
273 1 -1.1104 9.34675 7.80351 9.59083
274 2 2.2208 8.00348 12.1246 8.01728
275 2 2.2208 8.06001 6.56294 8.00361
276 2 2.2208 11.0501 6.49398 10.7495
277 2 2.2208 10.9168 12.1679 10.8356
278 1 -1.1104 12.5952 7.9199 12.1346
279 1 -1.1104 12.3049 7.99591 9.53298
280 1 -1.1104 12.2497 5.05554 12.0423
281 1 -1.1104 12.2974 10.69 12.1386
282 2 2.2208 10.8575 9.39435 8.10233
283 1 -1.1104 12.049 5.21938 9.09681
284 1 -1.1104 12.3522 10.8315 9.25811
285 1 -1.1104 9.63529 7.79728 12.3362
154 1 -1.1104 9.45261 13.4031 6.68698
9152 2 2.2208 -0.523151 6.48123 5.39895
117 1 -1.1104 0.880607 16.3887 6.65468
118 1 -1.1104 6.72716 16.1702 6.62569
112 1 -1.1104 6.67423 19.0732 6.68839
156 1 -1.1104 9.48909 19.0597 6.58663
288 1 -1.1104 6.42355 18.9831 9.43293
124 1 -1.1104 3.93492 13.5009 6.818
126 1 -1.1104 3.91127 19.093 6.6465
108 1 -1.1104 1.19137 13.3933 6.68735
310 2 2.2208 2.32825 14.7945 10.8215
286 1 -1.1104 3.90987 19.0833 12.1942
287 1 -1.1104 3.82553 13.4557 12.3019
291 1 -1.1104 1.09825 19.0741 9.60399
292 1 -1.1104 1.14263 16.3812 9.41961
293 2 2.2208 5.16432 20.5628 7.99539
294 1 -1.1104 1.0441 13.52 9.51041
295 2 2.2208 5.15023 14.9605 8.04813
298 1 -1.1104 1.18408 19.0013 12.4773
299 1 -1.1104 1.15212 13.3405 12.292
300 2 2.2208 5.1317 17.7202 10.7161
301 1 -1.1104 3.73984 19.2495 9.39801
303 2 2.2208 2.43532 17.7265 8.1287
304 1 -1.1104 3.80315 16.33 9.40527
305 1 -1.1104 4.01529 13.4168 9.52077
307 1 -1.1104 1.14314 16.2267 12.2594
308 1 -1.1104 3.99991 16.3213 12.2462
309 2 2.2208 2.52947 20.7022 10.9019
306 1 -1.1104 6.72461 16.0243 12.3457
341 2 2.2208 5.30313 0.680222 -0.291295
49 2 2.2208 13.6635 0.919422 2.39679
316 2 2.2208 8.00125 20.6129 10.9245
229 2 2.2208 8.06144 17.6845 8.01105
297 1 -1.1104 6.75674 13.5151 12.1397
135 2 2.2208 10.9556 14.9971 8.1166
82 1 -1.1104 12.206 19.0934 12.398
314 1 -1.1104 9.4035 16.5046 9.70906
83 1 -1.1104 12.2751 13.4701 9.4059
312 1 -1.1104 9.32407 19.2623 9.23601
27 2 2.2208 10.9237 17.8028 10.9403
199 1 -1.1104 9.4164 18.931 12.0227
289 1 -1.1104 6.32803 16.232 9.44057
137 1 -1.1104 12.2217 16.3813 9.43207
105 1 -1.1104 12.2831 16.2424 12.5443
81 1 -1.1104 12.5137 13.5934 12.147
165 1 -1.1104 9.62875 13.3876 12.302
290 1 -1.1104 6.80652 13.5311 9.41727
313 2 2.2208 8.08782 14.95 10.875
136 2 2.2208 10.7374 20.5431 8.01242
590 2 2.2208 5.18509 -4.77567 -0.201561
9173 2 2.2208 -0.344067 6.4045 -0.32374
336 2 2.2208 5.17448 14.8859 13.5657
9176 2 2.2208 -0.393386 11.9857 -0.204276
357 2 2.2208 10.9073 12.0097 -0.390878
340 2 2.2208 13.5442 20.4883 -0.38469
9189 2 2.2208 -0.264171 9.35181 13.7524
327 2 2.2208 2.5907 12.0762 13.7116
349 2 2.2208 13.7811 -2.00191 -0.2851
328 2 2.2208 8.16289 6.3935 13.6281
352 2 2.2208 5.35153 6.3014 -0.17409
338 2 2.2208 10.8755 14.7809 13.6442
319 2 2.2208 5.26263 -1.92194 13.7307
322 2 2.2208 8.10771 0.798925 13.7348
344 2 2.2208 -0.318202 0.765061 -0.161757
358 2 2.2208 5.27315 0.675106 16.419
359 1 -1.1104 1.24557 -3.43291 17.9587
360 1 -1.1104 1.11069 1.98612 18.0134
363 1 -1.1104 0.997884 -3.484 15.1644
365 1 -1.1104 1.08997 2.07839 15.2454
371 1 -1.1104 1.19556 -0.767864 17.9236
373 2 2.2208 5.28496 -1.93662 19.3142
374 2 2.2208 5.24826 3.60285 19.489
375 1 -1.1104 1.23225 -0.632241 15.01
379 1 -1.1104 3.90137 -3.34661 17.8909
380 1 -1.1104 3.8872 2.07625 18.1537
381 2 2.2208 2.55283 0.70825 19.307
382 1 -1.1104 3.88335 -3.54298 15.0402
384 1 -1.1104 3.92705 2.0852 14.8812
386 2 2.2208 2.57483 -1.96373 16.465
387 2 2.2208 2.52459 3.59886 16.5396
388 1 -1.1104 3.95073 -0.602328 17.762
389 1 -1.1104 3.97737 -0.660041 15.1004
395 2 2.2208 -0.318716 -1.8611 19.4242
394 2 2.2208 -0.200013 0.721722 16.4851
397 2 2.2208 2.26962 -4.82609 13.6501
364 1 -1.1104 1.17708 -3.38295 20.7442
383 1 -1.1104 3.97513 -3.23643 20.6772
393 2 2.2208 2.53894 -4.7793 19.2285
366 1 -1.1104 1.13265 2.29307 20.6852
390 1 -1.1104 4.03804 -0.499561 20.6266
426 2 2.2208 10.8896 -4.7253 16.6382
592 2 2.2208 2.42932 -4.98144 25.0778
372 1 -1.1104 6.64473 -0.603228 18.0282
362 1 -1.1104 6.76457 2.19153 17.9392
369 1 -1.1104 6.68065 2.22856 15.1465
377 1 -1.1104 6.64561 -0.68395 15.046
361 1 -1.1104 6.82001 -3.34355 18.0349
367 1 -1.1104 6.90417 -3.33353 15.2099
401 2 2.2208 10.9193 0.862821 16.4761
402 1 -1.1104 12.3188 -3.24945 18.1683
403 1 -1.1104 12.3852 2.12438 17.8933
404 1 -1.1104 12.4432 -3.56807 15.3032
406 1 -1.1104 12.4078 2.23586 15.152
408 1 -1.1104 12.3128 -0.466372 18.0071
409 2 2.2208 10.8629 -1.69858 19.4145
411 1 -1.1104 12.4408 -0.746987 15.0285
413 1 -1.1104 9.59892 -3.08462 18.1359
414 1 -1.1104 9.49654 2.48668 17.8912
415 2 2.2208 7.97675 0.938284 19.4733
416 1 -1.1104 9.82559 -3.28919 15.2419
418 1 -1.1104 9.5326 2.08072 15.09
420 2 2.2208 8.1882 -1.90597 16.5962
422 1 -1.1104 9.50005 -0.376097 17.9712
423 1 -1.1104 9.61652 -0.50689 15.0939
410 2 2.2208 10.8806 3.71549 19.2648
421 2 2.2208 8.22991 3.72106 16.5914
424 1 -1.1104 9.46451 -0.466687 20.8167
370 1 -1.1104 6.66644 2.29436 20.9121
427 2 2.2208 7.93096 -4.76833 19.5548
417 1 -1.1104 9.30405 -3.29544 20.7907
591 2 2.2208 5.33328 -4.86998 22.2578
345 2 2.2208 7.93849 14.8895 27.7202
434 2 2.2208 5.35854 6.48172 16.5105
435 2 2.2208 5.32357 11.9694 16.3199
436 1 -1.1104 0.962354 7.69054 18.0933
438 1 -1.1104 1.08151 7.77399 15.3177
442 1 -1.1104 1.14832 4.96715 18.0018
443 1 -1.1104 0.941872 10.4196 17.8141
446 2 2.2208 5.1134 9.20003 19.2072
447 1 -1.1104 1.16454 4.94623 15.0567
449 1 -1.1104 1.20506 10.5448 15.0241
455 1 -1.1104 3.88095 7.6564 17.8758
456 2 2.2208 2.30653 6.35213 19.4502
457 2 2.2208 2.42442 12.0335 19.359
458 1 -1.1104 3.93727 7.73042 15.1056
460 2 2.2208 2.35791 9.09089 16.6333
461 1 -1.1104 3.822 4.87203 18.0415
462 1 -1.1104 3.83842 10.6034 17.8787
463 1 -1.1104 3.99119 4.83666 15.1356
465 1 -1.1104 3.97817 10.6385 14.968
356 2 2.2208 7.97496 9.3791 27.7741
439 1 -1.1104 1.06915 7.83447 20.9426
466 1 -1.1104 3.81457 10.7794 20.678
459 1 -1.1104 3.64706 7.9436 20.6792
440 1 -1.1104 6.82529 7.77466 15.1264
392 2 2.2208 5.45719 -4.77746 16.3919
9427 2 2.2208 -0.495968 14.9186 19.2627
464 1 -1.1104 3.733 4.87784 20.6657
9387 2 2.2208 13.759 17.6479 19.2723
453 1 -1.1104 6.63619 10.5374 14.8601
437 1 -1.1104 6.63801 7.76633 17.9944
451 1 -1.1104 6.78445 5.12902 15.185
445 1 -1.1104 6.56713 10.6581 17.5812
444 1 -1.1104 6.72505 4.98186 17.9934
470 2 2.2208 11.1243 6.37871 16.4568
471 2 2.2208 10.7636 12.0236 16.4811
472 1 -1.1104 12.5107 7.91527 17.7415
473 1 -1.1104 12.2273 7.78493 14.9473
475 1 -1.1104 12.4316 5.07456 17.7894
476 1 -1.1104 12.2658 10.7393 17.8492
477 2 2.2208 10.9735 9.20591 19.209
478 1 -1.1104 12.586 4.87587 14.9365
480 1 -1.1104 12.3989 10.5886 15.0725
482 1 -1.1104 9.63506 7.79567 18.0458
483 2 2.2208 8.05901 6.42035 19.2111
484 2 2.2208 8.00112 12.1076 19.295
485 1 -1.1104 9.4827 7.79034 15.3257
487 2 2.2208 8.1773 9.22629 16.3748
488 1 -1.1104 9.7254 5.17663 17.9414
489 1 -1.1104 9.44415 10.5486 17.9262
490 1 -1.1104 9.55346 4.95601 15.1795
492 1 -1.1104 9.69118 10.6283 15.0438
479 1 -1.1104 12.3837 5.188 20.6635
454 1 -1.1104 6.57386 10.6405 20.6543
486 1 -1.1104 9.51049 7.9165 20.886
324 2 2.2208 10.8659 3.61603 13.7076
320 2 2.2208 2.5149 0.681945 13.5057
9535 2 2.2208 -0.46513 6.43884 22.1644
497 2 2.2208 5.20058 17.5641 16.5466
498 1 -1.1104 1.18324 13.3127 17.8315
499 1 -1.1104 1.05817 19.1623 18.0882
502 1 -1.1104 1.09528 13.3215 15.0541
504 1 -1.1104 1.07963 19.0917 15.3278
510 1 -1.1104 0.927899 16.2458 17.7861
512 2 2.2208 5.27031 14.7943 19.305
513 2 2.2208 5.28375 20.5311 19.075
514 1 -1.1104 1.10257 16.1832 15.1481
518 1 -1.1104 3.94354 13.39 18.0467
519 1 -1.1104 4.0126 19.06 17.7622
520 2 2.2208 2.39785 17.598 19.2812
521 1 -1.1104 3.92598 13.4668 15.258
523 1 -1.1104 3.88525 18.8084 15.0478
525 2 2.2208 2.5443 14.9192 16.6019
526 2 2.2208 2.56549 20.5 16.4536
527 1 -1.1104 3.86015 16.2933 17.909
528 1 -1.1104 3.90269 16.1078 15.0709
9428 2 2.2208 -0.336219 17.7061 16.5969
501 1 -1.1104 6.83409 18.9649 17.6665
516 1 -1.1104 6.48477 16.2196 15.013
9286 2 2.2208 -0.439514 9.19035 25.0264
330 2 2.2208 8.05728 12.166 13.5327
595 2 2.2208 -0.291089 1.09128 22.2528
508 1 -1.1104 6.71405 19.1442 14.9842
511 1 -1.1104 6.60453 16.288 17.8557
500 1 -1.1104 6.77015 13.4304 17.6847
506 1 -1.1104 6.77724 13.4396 14.9573
533 2 2.2208 10.7105 17.6343 16.4635
534 1 -1.1104 12.2457 13.3633 17.8502
535 1 -1.1104 12.3976 19.0237 17.8723
536 1 -1.1104 12.1838 13.4093 15.1451
538 1 -1.1104 12.2222 19.1662 14.9903
540 1 -1.1104 12.2085 16.2006 18.0725
541 2 2.2208 10.8431 14.8316 19.2627
542 2 2.2208 10.8841 20.5652 19.1935
543 1 -1.1104 12.4403 16.2256 15.38
545 1 -1.1104 9.34542 13.3578 17.8361
546 1 -1.1104 9.53065 19.1344 17.7469
547 2 2.2208 8.13822 17.714 19.2291
548 1 -1.1104 9.47997 13.5254 15.0081
550 1 -1.1104 9.39888 19.0888 15.0197
552 2 2.2208 8.20005 14.9914 16.3167
553 2 2.2208 8.09459 20.4736 16.4064
554 1 -1.1104 9.52065 16.3612 17.8603
555 1 -1.1104 9.43757 16.2979 14.889
507 1 -1.1104 6.69686 13.5526 20.7286
537 1 -1.1104 12.248 13.4566 20.7623
9357 2 2.2208 -0.368294 6.65527 16.5501
517 1 -1.1104 6.53814 16.3821 20.5795
323 2 2.2208 10.7931 -1.90232 13.77
653 2 2.2208 10.8368 17.6416 22.1567
385 1 -1.1104 3.89282 2.21326 21.0454
376 1 -1.1104 1.31468 -0.423802 20.7223
495 2 2.2208 -0.576793 20.6682 25.104
561 2 2.2208 5.28302 0.843684 22.0587
562 1 -1.1104 1.26649 -3.2552 23.5005
563 1 -1.1104 1.15533 2.23205 23.7128
566 1 -1.1104 1.06065 -3.42601 26.3342
567 1 -1.1104 1.07636 2.30252 26.5635
570 1 -1.1104 1.07534 -0.36507 23.4914
572 2 2.2208 5.15986 -2.04739 24.9702
574 1 -1.1104 1.02278 -0.509887 26.2607
576 1 -1.1104 3.90408 -3.36214 23.4321
577 1 -1.1104 3.90941 2.09121 23.706
578 2 2.2208 2.38166 0.845366 25.001
579 1 -1.1104 3.74069 -3.56771 26.4488
580 1 -1.1104 3.88441 2.07824 26.4815
581 2 2.2208 2.5591 -1.94683 22.0845
582 2 2.2208 2.58246 3.5153 22.2552
583 1 -1.1104 3.87126 -0.485534 23.4213
584 1 -1.1104 3.75275 -0.615589 26.2632
9313 2 2.2208 -0.374119 3.60107 25.1339
573 2 2.2208 5.44604 3.52828 24.9702
575 1 -1.1104 6.66381 -0.633553 26.425
432 1 -1.1104 9.46777 19.1312 26.2524
496 1 -1.1104 12.3457 16.0309 26.3372
368 1 -1.1104 6.57076 -3.44073 20.8218
9284 2 2.2208 -0.358281 3.63864 19.3285
405 1 -1.1104 12.3752 -3.37312 20.7377
419 1 -1.1104 9.68354 2.23136 20.8278
378 1 -1.1104 6.6562 -0.542605 20.8793
9356 2 2.2208 -0.383313 9.16123 19.4968
407 1 -1.1104 12.4703 2.25399 20.741
569 1 -1.1104 6.71907 2.00664 26.5359
571 1 -1.1104 6.49425 -0.814255 23.6555
568 1 -1.1104 6.40322 -3.33974 26.4235
412 1 -1.1104 12.4216 -0.539517 20.8931
565 1 -1.1104 6.84405 2.27255 23.6802
564 1 -1.1104 6.79576 -3.45841 23.6124
597 2 2.2208 10.9273 0.977154 22.2798
598 1 -1.1104 12.3924 -3.54871 23.5337
599 1 -1.1104 12.3939 2.13929 23.5163
600 1 -1.1104 12.2592 -3.24998 26.3032
601 1 -1.1104 12.1417 2.21391 26.374
602 1 -1.1104 12.2813 -0.641485 23.5964
603 2 2.2208 11.0178 -1.96256 25.0779
604 2 2.2208 10.9488 3.60729 24.8019
605 1 -1.1104 12.4233 -0.498281 26.5041
606 1 -1.1104 9.66575 -3.4342 23.6914
607 1 -1.1104 9.55448 2.30436 23.6334
608 2 2.2208 8.16899 0.881854 25.0864
609 1 -1.1104 9.38035 -3.30201 26.6715
610 1 -1.1104 9.55132 2.09995 26.313
611 2 2.2208 8.04949 -1.88879 22.1845
612 2 2.2208 8.13516 3.63604 22.3073
613 1 -1.1104 9.58509 -0.413715 23.6595
614 1 -1.1104 9.4929 -0.658086 26.3302
9314 2 2.2208 13.6458 17.7708 24.8507
326 2 2.2208 5.19516 9.06174 13.547
354 2 2.2208 5.21537 12.1366 27.8329
332 2 2.2208 5.1369 20.498 13.4679
539 1 -1.1104 12.3783 19.2682 20.6419
9197 2 2.2208 -0.433337 20.4608 13.7833
448 1 -1.1104 0.988896 5.04219 20.8697
450 1 -1.1104 1.15871 10.6534 20.6761
9247 2 2.2208 13.7924 0.807479 19.4112
626 2 2.2208 5.31804 6.44812 22.1424
627 2 2.2208 5.2239 11.9218 22.2382
628 1 -1.1104 1.02394 7.73496 23.4219
630 1 -1.1104 1.27292 7.85341 26.2723
632 1 -1.1104 1.12655 5.18328 23.5342
633 1 -1.1104 1.05141 10.4843 23.7555
636 2 2.2208 5.34217 9.06625 25.0146
637 1 -1.1104 0.993402 5.16922 26.4737
638 1 -1.1104 1.09257 10.7372 26.5137
641 1 -1.1104 3.91176 7.79197 23.6334
642 2 2.2208 2.62225 6.46091 24.8686
643 2 2.2208 2.38149 11.9734 25.0881
644 1 -1.1104 3.89257 7.73366 26.4763
645 2 2.2208 2.43087 9.21121 22.2359
646 1 -1.1104 4.08404 4.98996 23.4546
647 1 -1.1104 3.92446 10.4941 23.7016
648 1 -1.1104 3.9356 4.86884 26.2442
649 1 -1.1104 3.71951 10.7652 26.3385
474 1 -1.1104 12.3895 7.94629 20.5093
481 1 -1.1104 12.4528 10.6919 20.715
491 1 -1.1104 9.61451 4.81678 20.7215
635 1 -1.1104 6.70421 10.4759 23.4937
452 1 -1.1104 6.76245 5.11924 20.9535
640 1 -1.1104 6.62029 10.674 26.2809
441 1 -1.1104 6.62135 7.82947 20.7642
493 1 -1.1104 9.56677 10.5508 20.607
631 1 -1.1104 6.61228 7.96554 26.5077
639 1 -1.1104 6.78523 5.07334 26.5314
634 1 -1.1104 6.73513 5.0041 23.6167
629 1 -1.1104 6.61554 7.77695 23.6014
657 1 -1.1104 9.43161 10.8066 26.2047
658 1 -1.1104 9.54819 4.87796 26.2126
659 1 -1.1104 9.65207 10.8065 23.3578
660 1 -1.1104 9.50411 5.11767 23.5178
661 2 2.2208 8.13551 9.21462 22.0395
662 1 -1.1104 9.32239 7.8911 26.3301
663 2 2.2208 8.03352 12.1432 24.8358
664 2 2.2208 8.11838 6.48612 25.0308
665 2 2.2208 10.8737 6.40136 22.0655
666 2 2.2208 10.9783 12.2273 22.1073
667 1 -1.1104 12.3714 7.96548 23.3064
668 1 -1.1104 12.2861 7.84078 25.9926
669 1 -1.1104 12.2151 4.92279 23.5559
670 1 -1.1104 12.561 10.828 23.6206
671 2 2.2208 11.0352 9.51183 24.8033
672 1 -1.1104 12.3635 5.1398 26.3627
673 1 -1.1104 12.3009 10.6654 26.2636
674 1 -1.1104 9.39284 7.88796 23.6693
676 1 -1.1104 6.67858 13.5715 26.1886
433 2 2.2208 7.85632 15.005 22.0135
351 2 2.2208 8.0502 20.5671 27.7476
505 1 -1.1104 0.77451 19.2496 20.9943
522 1 -1.1104 3.91052 13.6407 21.0108
9196 2 2.2208 -0.218439 14.845 13.6754
398 1 -1.1104 9.47522 19.2507 23.5083
529 1 -1.1104 3.88334 16.3672 20.5669
503 1 -1.1104 1.05833 13.4317 20.6769
515 1 -1.1104 1.04996 16.405 20.8389
524 1 -1.1104 3.60418 19.1224 20.4535
531 2 2.2208 2.4092 14.898 22.1314
532 2 2.2208 2.19187 20.7448 22.1504
557 1 -1.1104 3.72819 16.4572 23.3105
558 1 -1.1104 1.06964 16.2162 23.6613
560 1 -1.1104 3.98056 13.6879 26.472
585 1 -1.1104 3.80268 16.4059 26.1114
586 2 2.2208 2.48564 17.8372 24.8449
587 1 -1.1104 3.92485 19.2684 26.2955
593 2 2.2208 5.16129 17.7958 22.0002
596 1 -1.1104 1.00776 13.343 23.5501
615 1 -1.1104 0.84212 19.0553 23.8477
617 2 2.2208 5.13576 14.9883 24.9279
622 2 2.2208 5.29148 20.5893 24.8432
625 1 -1.1104 1.18703 13.6805 26.2491
650 1 -1.1104 0.980246 16.5889 26.3061
651 1 -1.1104 0.953806 19.5024 26.5882
675 1 -1.1104 3.69235 13.6779 23.7524
677 1 -1.1104 3.7194 19.3512 23.5169
549 1 -1.1104 9.31974 13.4581 20.38
544 1 -1.1104 12.1046 16.2118 20.8534
556 1 -1.1104 9.43153 16.4477 20.8143
551 1 -1.1104 9.46026 19.2399 20.4948
624 1 -1.1104 6.54504 19.0226 23.3583
400 1 -1.1104 6.57935 19.2209 26.1577
616 1 -1.1104 6.59223 13.6989 23.3885
652 1 -1.1104 6.57677 16.4396 26.4782
469 1 -1.1104 9.46666 16.3678 26.1886
467 2 2.2208 8.14947 20.4165 21.9654
679 1 -1.1104 12.3875 16.24 23.6566
680 2 2.2208 10.9047 14.8525 24.9455
494 1 -1.1104 9.46429 13.6314 23.2392
559 1 -1.1104 6.69858 16.4929 23.4801
656 1 -1.1104 12.2819 13.2034 26.2659
530 2 2.2208 10.8799 20.5907 25.038
678 1 -1.1104 12.3339 19.0312 26.2317
509 1 -1.1104 6.69304 19.2668 20.3986
399 2 2.2208 8.06131 17.7442 24.7651
431 1 -1.1104 9.56242 13.5622 26.2711
468 1 -1.1104 9.43592 16.3589 23.5309
654 1 -1.1104 12.2249 13.6128 23.64
655 1 -1.1104 12.2446 19.1037 23.5894
9171 2 2.2208 13.7273 9.31441 27.6494
334 2 2.2208 5.2712 17.9546 27.5762
335 2 2.2208 2.40231 20.7157 27.701
355 2 2.2208 10.989 6.55293 27.6873
333 2 2.2208 2.47779 14.9482 27.6789
317 2 2.2208 -0.293578 -2.00147 13.7392
346 2 2.2208 10.9264 0.868123 27.7655
350 2 2.2208 10.9686 17.4821 27.7179
9178 2 2.2208 -0.267697 3.50633 13.6943
337 2 2.2208 10.9157 20.3233 13.6288
681 2 2.2208 5.18714 23.4752 5.24287
682 2 2.2208 5.15486 28.9026 5.06972
683 1 -1.1104 0.884938 24.7807 0.999977
684 1 -1.1104 1.05095 24.7054 3.66859
685 1 -1.1104 1.02703 21.9252 0.84172
686 1 -1.1104 1.01345 27.4344 1.09409
687 2 2.2208 5.16641 26.1508 2.3404
688 1 -1.1104 0.687123 22.0043 3.65108
689 1 -1.1104 0.952181 27.4207 3.77721
690 1 -1.1104 3.76954 24.8544 1.02034
691 2 2.2208 2.45053 23.5306 2.37782
692 2 2.2208 2.27265 28.9609 2.37976
693 1 -1.1104 3.94691 24.7884 3.78184
694 2 2.2208 2.28888 26.0559 5.19285
695 1 -1.1104 3.73525 22.0102 0.924552
696 1 -1.1104 3.67202 27.6852 0.999581
697 1 -1.1104 3.80733 21.8552 3.8254
698 1 -1.1104 3.75914 27.4874 3.86588
824 1 -1.1104 0.862596 21.8535 6.5576
752 2 2.2208 -0.364221 31.7433 2.3456
706 1 -1.1104 6.57219 21.9491 3.95374
703 1 -1.1104 6.67176 24.8832 3.83234
704 1 -1.1104 6.69355 22.0107 1.15993
972 2 2.2208 -0.406379 40.2293 10.8929
830 1 -1.1104 3.65521 27.3703 6.5788
825 1 -1.1104 1.0143 27.4781 6.73628
822 1 -1.1104 1.00877 24.7768 6.55642
823 1 -1.1104 6.55266 24.839 6.71251
1578 1 -1.1104 3.95593 47.266 9.44622
801 2 2.2208 -0.384832 40.3691 5.29308
707 1 -1.1104 6.40313 27.5347 3.717
705 1 -1.1104 6.81935 27.5421 0.994571
702 1 -1.1104 6.68577 24.7865 0.864477
708 2 2.2208 10.7586 23.4339 5.23194
709 2 2.2208 10.7518 29.0624 5.0634
710 1 -1.1104 12.16 24.4765 0.960122
711 1 -1.1104 12.3624 24.7247 3.72108
712 1 -1.1104 12.397 21.9287 1.23801
713 1 -1.1104 12.086 27.4376 0.989274
714 2 2.2208 10.7944 26.1766 2.54961
715 1 -1.1104 12.0035 22.0264 3.86281
716 1 -1.1104 12.2263 27.574 3.72839
717 1 -1.1104 9.57572 24.809 1.08076
718 2 2.2208 8.04721 23.3816 2.52005
719 2 2.2208 8.08118 28.9853 2.4395
720 1 -1.1104 9.39645 24.8848 3.8467
721 2 2.2208 7.85894 26.3276 5.30003
722 1 -1.1104 9.5695 21.8134 1.06363
723 1 -1.1104 9.54344 27.8426 1.17106
724 1 -1.1104 9.3526 21.9365 4.00591
725 1 -1.1104 9.1853 27.6506 3.99997
970 2 2.2208 -0.209614 43.1874 8.21005
9765 2 2.2208 13.6746 37.4404 11.03
860 1 -1.1104 9.1135 27.5184 6.87803
859 1 -1.1104 9.32511 22.1182 6.84907
855 1 -1.1104 12.0686 25.0288 6.42309
10543 3 0 10.9831 47.2153 12.6379
1042 2 2.2208 5.02566 45.6091 -0.445899
1031 2 2.2208 -0.379295 40.119 -0.444436
729 2 2.2208 5.45229 34.4896 5.15568
730 1 -1.1104 0.876156 30.4093 0.998146
731 1 -1.1104 1.0005 36.1183 1.19643
733 1 -1.1104 0.908565 30.2712 3.84054
734 1 -1.1104 1.23116 36.1774 4.17269
736 1 -1.1104 1.22415 33.3112 1.03622
737 2 2.2208 5.32039 31.8509 2.31816
738 2 2.2208 5.2259 37.5148 2.49983
739 1 -1.1104 1.06049 33.2345 3.76852
741 1 -1.1104 3.79991 30.5253 0.950657
742 1 -1.1104 3.99022 36.0981 1.10687
743 2 2.2208 2.41801 34.6746 2.33231
744 1 -1.1104 3.66336 30.3265 3.68628
745 1 -1.1104 3.8539 36.1846 3.7601
746 2 2.2208 2.50828 31.752 5.36296
747 2 2.2208 2.48687 37.4283 5.31298
748 1 -1.1104 3.90814 33.2511 0.899936
749 1 -1.1104 3.91278 33.2093 3.90689
732 1 -1.1104 6.74896 35.855 1.2707
740 1 -1.1104 6.76934 33.0322 3.74375
753 1 -1.1104 6.6738 30.3845 0.932343
975 1 -1.1104 9.336 44.5823 12.4896
9743 2 2.2208 -0.424559 23.3799 10.9658
1024 2 2.2208 -0.432228 23.4339 -0.476219
887 1 -1.1104 3.94518 33.0739 6.724
9861 2 2.2208 -0.599234 29.0926 5.24945
1416 1 -1.1104 9.11082 47.2148 1.04896
1021 2 2.2208 2.29734 26.2893 -0.33642
9865 2 2.2208 -0.20406 37.3495 7.9644
755 1 -1.1104 6.6772 33.0732 1.06214
735 1 -1.1104 6.78284 35.9946 3.96983
754 1 -1.1104 6.55524 30.2045 3.65921
756 2 2.2208 10.9414 34.4429 5.2987
757 1 -1.1104 12.1022 30.3355 0.971341
758 1 -1.1104 12.1092 36.1002 1.06012
759 1 -1.1104 12.1266 30.3585 3.83957
760 1 -1.1104 12.4498 35.8665 3.93356
761 1 -1.1104 12.2874 33.2447 0.934565
762 2 2.2208 10.8916 31.954 2.47538
763 2 2.2208 10.8961 37.5182 2.55945
764 1 -1.1104 12.342 33.1007 3.85599
765 1 -1.1104 9.35858 30.6009 1.07015