ITEM: TIMESTEP
40000
ITEM: NUMBER OF ATOMS
17700
ITEM: BOX BOUNDS pp pp pp
-3.9922872169536361e-01 2.7739228721695813e+01
-4.7789320077538795e+00 3.3285893200775217e+02
-4.0368171446104589e-01 2.7743681714460664e+01
ITEM: ATOMS id type q x y z
1 2 2.2208 5.03603 0.718137 5.15408
2 1 -1.1104 1.0654 -3.66515 0.878124
3 1 -1.1104 1.05342 1.91973 0.980992
6 1 -1.1104 1.09797 -3.59774 3.91209
7 1 -1.1104 0.868514 2.10956 3.65787
10 1 -1.1104 0.986606 -0.846599 0.936889
12 2 2.2208 5.03005 -2.11265 2.44461
13 2 2.2208 5.10036 3.43081 2.34292
14 1 -1.1104 0.759861 -0.856712 3.75562
16 1 -1.1104 3.75443 -3.73748 0.741347
17 1 -1.1104 3.96665 2.11063 0.905353
18 2 2.2208 2.33671 0.604255 2.43163
19 1 -1.1104 3.67997 -3.57137 3.77912
20 1 -1.1104 3.74121 2.10507 3.8229
21 2 2.2208 2.19596 -2.22148 5.33059
23 1 -1.1104 3.80386 -0.633543 0.947374
24 1 -1.1104 3.48823 -0.688844 3.75961
22 2 2.2208 2.19718 3.50293 5.04402
11 1 -1.1104 6.34921 -0.652551 0.914444
4 1 -1.1104 6.37234 -3.46701 0.83147
9 1 -1.1104 6.56076 1.93167 3.74974
5 1 -1.1104 6.62171 2.03048 0.84929
15 1 -1.1104 6.55542 -0.837001 3.77192
8 1 -1.1104 6.35827 -3.69401 3.66783
173 1 -1.1104 3.64434 1.93576 6.56855
169 1 -1.1104 6.36214 1.97254 6.51309
170 1 -1.1104 0.672451 -0.791292 6.7402
166 1 -1.1104 0.78833 -3.41501 6.71146
172 1 -1.1104 3.5138 -3.58706 6.71842
9066 2 2.2208 13.3974 8.97551 10.8382
137 1 -1.1104 11.9894 16.1444 9.37459
328 2 2.2208 7.89014 6.28583 13.4512
171 1 -1.1104 6.4181 -0.711738 6.54588
8850 2 2.2208 13.4531 3.39351 5.22697
332 2 2.2208 4.86635 20.5101 13.5774
31 2 2.2208 10.6406 0.667215 5.05911
32 1 -1.1104 12.1399 -3.51173 0.79796
33 1 -1.1104 12.173 2.06835 0.717573
34 1 -1.1104 12.0955 -3.5211 3.80331
35 1 -1.1104 11.9288 1.96074 3.55892
36 1 -1.1104 11.983 -0.743208 0.8105
37 2 2.2208 10.7618 -2.13801 2.27007
38 2 2.2208 10.7768 3.63957 2.24751
39 1 -1.1104 12.0643 -0.699401 3.60027
40 1 -1.1104 9.37884 -3.46575 0.875463
41 1 -1.1104 9.19984 2.05377 0.908289
42 2 2.2208 7.82435 0.578487 2.26849
43 1 -1.1104 9.26068 -3.52171 3.72945
44 1 -1.1104 9.18624 1.9338 3.63526
45 2 2.2208 7.8736 -2.20898 5.19682
47 1 -1.1104 9.18534 -0.761715 0.940741
48 1 -1.1104 9.20916 -0.847897 3.85947
46 2 2.2208 7.99627 3.39932 4.78293
209 1 -1.1104 9.26713 2.25352 6.47595
208 1 -1.1104 9.08622 -3.56128 6.62561
206 1 -1.1104 11.96 2.22344 6.49014
50 2 2.2208 13.495 -2.14075 5.22795
207 1 -1.1104 12.2243 -0.868866 6.48745
210 1 -1.1104 9.38562 -0.77955 6.59147
205 1 -1.1104 12.0111 -3.48359 6.73699
54 2 2.2208 5.12273 6.25756 5.14812
55 2 2.2208 4.99718 11.8025 5.01484
56 1 -1.1104 0.725679 7.8296 1.02516
58 1 -1.1104 0.755179 7.70187 3.74916
60 1 -1.1104 0.860919 4.97816 1.08187
61 1 -1.1104 0.927572 10.6001 0.750067
66 2 2.2208 4.92112 8.93752 2.24243
67 1 -1.1104 0.805375 4.82987 3.8184
68 1 -1.1104 0.886989 10.5502 3.66748
71 1 -1.1104 3.5636 7.61592 0.938982
72 2 2.2208 2.0336 6.32184 2.36821
73 2 2.2208 2.13791 11.8956 2.15301
74 1 -1.1104 3.55951 7.68582 3.69484
75 2 2.2208 2.13787 9.19659 5.16223
76 1 -1.1104 3.73698 4.86141 0.962436
77 1 -1.1104 3.68483 10.4551 0.882759
79 1 -1.1104 3.72389 4.76357 3.83253
80 1 -1.1104 3.5624 10.4571 3.62568
237 1 -1.1104 6.39993 4.8884 6.51742
238 1 -1.1104 3.50574 7.75472 6.34227
70 1 -1.1104 6.43227 10.4331 3.49298
59 1 -1.1104 6.48345 7.74736 3.69446
62 1 -1.1104 0.737551 10.678 6.52099
78 1 -1.1104 3.62128 10.4933 6.51203
63 1 -1.1104 6.49103 4.85534 0.999635
57 1 -1.1104 6.55337 7.66059 0.742929
69 1 -1.1104 6.50827 4.88507 3.61021
64 1 -1.1104 6.56241 10.5419 0.66051
235 1 -1.1104 6.45466 7.63789 6.39067
239 1 -1.1104 3.53276 4.87948 6.47882
65 1 -1.1104 6.25877 10.5213 6.28609
234 1 -1.1104 0.698553 7.81428 6.52769
8879 2 2.2208 13.4374 9.1723 5.13592
84 2 2.2208 10.6748 6.43211 5.04417
85 2 2.2208 10.5862 12.0153 5.10567
86 1 -1.1104 12.1245 7.76765 0.878397
87 1 -1.1104 11.8192 7.86782 3.57423
88 1 -1.1104 12.0107 4.98687 0.839228
89 1 -1.1104 12.2156 10.5301 0.863395
91 2 2.2208 10.6508 9.13805 2.15856
92 1 -1.1104 12.0654 4.91164 3.71179
93 1 -1.1104 12.2941 10.5302 3.7096
94 1 -1.1104 9.19309 7.79704 0.836884
95 2 2.2208 7.88158 6.38931 2.28382
96 2 2.2208 7.88774 11.7931 2.31133
97 1 -1.1104 9.29142 7.89526 3.55313
98 2 2.2208 7.98531 9.20483 5.08042
99 1 -1.1104 9.46512 4.86573 0.933599
100 1 -1.1104 9.42084 10.5813 0.896039
102 1 -1.1104 9.28421 4.94835 3.67722
103 1 -1.1104 9.30002 10.4941 3.77355
267 1 -1.1104 9.39806 7.81463 6.59179
265 1 -1.1104 12.2307 7.9006 6.44986
9156 2 2.2208 13.4601 6.25376 2.31656
101 1 -1.1104 9.0203 10.4224 6.7243
266 1 -1.1104 12.0687 5.01355 6.44582
9155 2 2.2208 13.588 11.798 2.27059
269 1 -1.1104 9.06016 4.93114 6.29041
90 1 -1.1104 11.7024 10.7129 6.61051
9183 2 2.2208 13.4102 11.987 13.4497
106 2 2.2208 5.16923 17.6205 5.22213
107 1 -1.1104 0.865058 13.5597 0.850911
109 1 -1.1104 0.879427 19.2379 0.910504
113 1 -1.1104 0.960162 13.455 3.46272
114 1 -1.1104 0.677106 18.9432 3.68548
116 1 -1.1104 0.823888 16.2912 1.06384
119 2 2.2208 5.12821 14.8272 2.30295
120 2 2.2208 5.18144 20.4685 2.28802
121 1 -1.1104 0.988894 16.2438 3.8137
123 1 -1.1104 3.47337 13.2808 0.842984
125 1 -1.1104 3.7571 18.9724 1.02197
127 2 2.2208 2.40107 17.6582 2.32294
128 1 -1.1104 3.69707 13.2881 3.62153
129 1 -1.1104 3.56657 19.1675 3.74352
130 2 2.2208 2.34283 14.8575 4.98367
131 2 2.2208 2.27924 20.4578 5.18486
132 1 -1.1104 3.7135 16.0151 0.849803
134 1 -1.1104 3.80212 16.357 3.64183
110 1 -1.1104 6.35954 13.4466 0.862104
140 1 -1.1104 6.4438 16.2252 0.989713
115 1 -1.1104 6.4855 13.1981 3.74557
138 1 -1.1104 6.54022 18.9576 0.970681
118 1 -1.1104 6.39573 16.3553 6.61992
108 1 -1.1104 0.67489 13.4362 6.37915
112 1 -1.1104 6.50512 19.2068 6.45752
139 1 -1.1104 6.54525 18.8342 3.69219
122 1 -1.1104 6.50553 16.0216 3.85853
111 1 -1.1104 6.37656 13.247 6.46377
124 1 -1.1104 3.61678 13.346 6.44822
117 1 -1.1104 0.91878 16.1457 6.47953
302 1 -1.1104 0.975249 19.0776 6.50738
126 1 -1.1104 3.60461 19.1504 6.62649
133 1 -1.1104 3.74561 16.2282 6.4135
49 2 2.2208 13.4492 0.859055 2.28334
149 1 -1.1104 12.156 16.2712 6.59527
145 1 -1.1104 12.237 18.8919 6.55542
141 2 2.2208 10.6848 17.6758 5.14901
142 1 -1.1104 12.0498 13.3081 1.00328
144 1 -1.1104 12.1767 19.2315 1.10772
146 1 -1.1104 11.9055 13.2348 3.68037
147 1 -1.1104 12.138 19.0127 3.67942
148 1 -1.1104 11.9828 16.1094 0.807515
150 2 2.2208 10.3397 14.7982 2.35834
151 2 2.2208 10.671 20.4773 2.35128
152 1 -1.1104 12.0291 16.1505 3.6935
153 1 -1.1104 9.3327 13.3374 0.997394
155 1 -1.1104 9.23232 19.055 0.934694
157 2 2.2208 7.73989 17.6178 2.39242
158 1 -1.1104 9.23164 13.2523 3.75937
159 1 -1.1104 9.219 18.942 3.84354
160 2 2.2208 7.79404 14.826 5.16853
161 2 2.2208 8.03165 20.5032 5.24591
162 1 -1.1104 9.21675 16.2724 0.933341
164 1 -1.1104 9.38729 16.1586 3.89798
156 1 -1.1104 9.26245 19.1084 6.63695
9160 2 2.2208 13.572 17.6339 2.35465
143 1 -1.1104 12.1875 13.3609 6.63463
8948 2 2.2208 13.3679 14.8388 5.06224
8927 2 2.2208 13.405 20.4068 5.14168
154 1 -1.1104 9.34841 13.4591 6.56412
104 1 -1.1104 12.0645 18.8967 9.52381
167 1 -1.1104 0.891394 2.05519 6.46267
168 1 -1.1104 6.31274 -3.56581 6.50904
174 1 -1.1104 3.55622 -0.890193 6.60012
322 2 2.2208 7.98565 0.711545 13.5827
175 2 2.2208 4.89838 0.841551 10.8142
176 1 -1.1104 0.442595 -3.49821 12.2081
177 1 -1.1104 0.607265 2.16686 12.2194
180 1 -1.1104 0.804882 -3.54406 9.42247
181 1 -1.1104 0.770738 2.05361 9.39001
184 1 -1.1104 0.950464 -0.736716 12.3579
186 2 2.2208 5.03863 -2.09308 8.00857
188 1 -1.1104 0.763749 -0.820069 9.50044
190 1 -1.1104 3.3868 -3.43974 12.2485
191 1 -1.1104 3.55072 2.30751 12.1592
192 2 2.2208 2.00887 0.665637 7.81996
193 1 -1.1104 3.57916 -3.61509 9.55956
194 1 -1.1104 3.47265 2.09338 9.38585
195 2 2.2208 2.10883 -2.17657 10.758
196 2 2.2208 2.03286 3.55782 10.8281
197 1 -1.1104 3.5948 -0.66071 12.1369
198 1 -1.1104 3.56502 -0.968804 9.44864
187 2 2.2208 4.87942 3.63983 7.89938
178 1 -1.1104 6.43571 -3.50024 12.3665
182 1 -1.1104 6.34063 -3.53825 9.42725
183 1 -1.1104 6.26997 2.2024 9.422
185 1 -1.1104 6.4029 -0.613 12.1735
189 1 -1.1104 6.42386 -0.669333 9.39389
179 1 -1.1104 6.41801 2.25481 12.3253
324 2 2.2208 10.6959 3.48336 13.4474
339 2 2.2208 7.73299 17.6015 13.4601
321 2 2.2208 4.98669 3.70288 13.6745
81 1 -1.1104 12.1356 13.4305 12.1472
9180 2 2.2208 13.4043 6.29141 13.4452
8985 2 2.2208 13.3851 3.50709 10.5461
319 2 2.2208 5.06664 -1.92314 13.6612
230 2 2.2208 13.3545 -2.18473 10.7533
211 2 2.2208 10.767 0.682254 10.6931
212 1 -1.1104 11.8804 -3.45717 12.1165
213 1 -1.1104 12.0914 2.09233 11.9931
214 1 -1.1104 11.8384 -3.524 9.49207
215 1 -1.1104 12.1037 2.05165 9.25936
216 1 -1.1104 12.2642 -0.622691 12.06
217 2 2.2208 10.552 -2.05992 7.96572
218 2 2.2208 10.6482 3.62639 7.87614
219 1 -1.1104 11.9151 -0.74367 9.3698
220 1 -1.1104 9.08101 -3.50395 12.1997
221 1 -1.1104 9.19002 2.15552 12.017
222 2 2.2208 7.85877 0.784541 7.88539
223 1 -1.1104 9.07653 -3.44909 9.42276
224 1 -1.1104 9.35381 2.21902 9.34901
225 2 2.2208 7.77253 -2.05053 10.8471
226 2 2.2208 7.82552 3.56903 10.7869
227 1 -1.1104 9.35903 -0.743015 12.1362
228 1 -1.1104 9.20561 -0.60708 9.15778
9162 2 2.2208 13.5328 0.541509 7.98063
327 2 2.2208 2.01011 12.1508 13.494
312 1 -1.1104 9.20751 19.1868 9.4137
105 1 -1.1104 12.0372 16.3143 12.2258
318 2 2.2208 13.6098 0.862821 13.5058
236 1 -1.1104 0.847499 4.85855 6.69497
240 2 2.2208 4.98486 6.44371 10.7115
241 2 2.2208 5.04549 11.9992 10.8407
242 1 -1.1104 0.782663 7.8169 11.8311
244 1 -1.1104 0.732919 7.53663 9.20936
246 1 -1.1104 0.773059 5.10064 12.1814
247 1 -1.1104 0.665697 10.7133 12.1508
250 2 2.2208 5.15369 9.13128 7.94616
251 1 -1.1104 0.806665 4.69744 9.30961
252 1 -1.1104 1.03958 10.6351 9.3415
255 1 -1.1104 3.61829 7.9336 12.1996
256 2 2.2208 2.2753 6.20087 7.9062
257 2 2.2208 2.24789 11.9882 7.86657
258 1 -1.1104 3.4564 7.64266 9.4114
259 2 2.2208 2.32562 9.09969 10.7566
260 1 -1.1104 3.34826 5.17915 12.1289
261 1 -1.1104 3.47019 10.7154 12.2744
262 1 -1.1104 3.51847 5.04318 9.37255
263 1 -1.1104 3.7852 10.4561 9.44913
253 1 -1.1104 6.38371 5.04151 9.44076
248 1 -1.1104 6.31197 4.97457 12.1306
254 1 -1.1104 6.50368 10.7074 9.46215
323 2 2.2208 10.5851 -2.02663 13.4785
249 1 -1.1104 6.4611 10.6113 12.0417
243 1 -1.1104 6.49854 7.77746 12.1704
245 1 -1.1104 6.28978 7.7097 9.17239
337 2 2.2208 10.7498 20.4227 13.6688
326 2 2.2208 5.20999 9.3848 13.6256
315 1 -1.1104 9.17769 16.3159 12.1192
9062 2 2.2208 13.5007 11.9015 8.11567
9150 2 2.2208 13.4742 14.8666 10.825
9061 2 2.2208 13.3675 6.37786 7.91416
264 1 -1.1104 9.32701 10.5538 9.52302
268 1 -1.1104 9.15991 4.9159 9.20402
270 1 -1.1104 9.27178 10.5477 12.2681
271 1 -1.1104 9.27956 4.98676 12.4001
272 2 2.2208 8.04596 9.16898 10.7275
273 1 -1.1104 9.19487 7.62325 9.35599
274 2 2.2208 7.84704 12.0542 8.03723
275 2 2.2208 7.78211 6.28364 7.78186
276 2 2.2208 10.5508 6.27447 10.6377
277 2 2.2208 10.7085 12.0484 10.7786
278 1 -1.1104 11.8591 7.56894 12.0462
279 1 -1.1104 11.9185 7.65109 9.37534
280 1 -1.1104 11.9868 4.84933 12.0184
281 1 -1.1104 12.0083 10.5318 11.9567
282 2 2.2208 10.6143 9.08612 7.9271
283 1 -1.1104 11.8626 4.94928 9.25319
284 1 -1.1104 12.154 10.327 9.28273
285 1 -1.1104 9.1194 7.65454 12.2353
82 1 -1.1104 12.1955 19.2516 12.3269
325 2 2.2208 2.33319 6.52618 13.5506
316 2 2.2208 7.87224 20.4676 10.7414
311 1 -1.1104 9.33192 13.5261 9.34327
297 1 -1.1104 6.37599 13.4425 12.0155
289 1 -1.1104 6.62846 16.2664 9.38468
296 1 -1.1104 6.3797 19.0166 12.0425
310 2 2.2208 2.21283 14.7189 10.6653
286 1 -1.1104 3.73257 19.0639 12.231
287 1 -1.1104 3.59884 13.4901 12.033
291 1 -1.1104 0.810337 18.9748 9.47573
292 1 -1.1104 0.876853 16.29 9.35069
293 2 2.2208 5.30427 20.399 8.00122
294 1 -1.1104 0.927568 13.3406 9.19462
295 2 2.2208 5.10332 14.8631 7.84342
298 1 -1.1104 0.869834 19.1277 12.2044
299 1 -1.1104 0.64785 13.3809 12.0198
300 2 2.2208 5.14573 17.5527 10.7011
301 1 -1.1104 3.84397 19.0575 9.34295
303 2 2.2208 2.27664 17.7566 8.09562
304 1 -1.1104 3.69252 16.2872 9.40271
305 1 -1.1104 3.61485 13.4978 8.94104
307 1 -1.1104 0.903763 16.2863 12.2178
308 1 -1.1104 3.73076 16.3079 12.1198
309 2 2.2208 2.17545 20.4644 10.7918
290 1 -1.1104 6.38366 13.3693 9.24476
306 1 -1.1104 6.23722 16.1355 12.176
288 1 -1.1104 6.50759 18.982 9.20479
331 2 2.2208 2.18239 17.7781 13.4547
136 2 2.2208 10.7159 20.6103 8.046
9151 2 2.2208 13.4187 17.6872 8.00146
338 2 2.2208 10.7356 14.8473 13.6445
199 1 -1.1104 9.28331 19.0041 12.2684
165 1 -1.1104 9.37868 13.5645 12.2319
135 2 2.2208 10.7453 14.822 8.02865
330 2 2.2208 7.91343 12.1247 13.5875
27 2 2.2208 10.5923 17.5663 10.8304
229 2 2.2208 7.95407 17.6461 8.00088
83 1 -1.1104 12.1241 13.4362 9.36675
314 1 -1.1104 9.37733 16.3313 9.27597
9112 2 2.2208 13.5878 20.5323 10.6948
313 2 2.2208 7.76449 14.894 10.8855
163 1 -1.1104 9.36237 16.181 6.67237
329 2 2.2208 10.6288 9.22691 13.4701
9184 2 2.2208 13.6078 17.5648 13.6115
320 2 2.2208 2.24465 0.635275 13.5705
335 2 2.2208 2.28816 20.5399 -0.390058
336 2 2.2208 5.00514 14.769 13.5884
351 2 2.2208 7.81342 20.4414 -0.39906
358 2 2.2208 5.23687 0.851231 16.3552
359 1 -1.1104 0.669698 -3.4923 17.958
360 1 -1.1104 1.0003 2.10227 17.7489
363 1 -1.1104 0.700581 -3.29224 15.1097
365 1 -1.1104 1.02901 2.11684 14.9051
371 1 -1.1104 0.774593 -0.675765 17.8383
373 2 2.2208 5.07275 -2.24961 19.267
374 2 2.2208 4.95055 3.62555 19.1555
375 1 -1.1104 1.14475 -0.632938 15.1778
379 1 -1.1104 3.54537 -3.61762 17.8469
380 1 -1.1104 3.75622 2.00112 17.6032
381 2 2.2208 2.34051 0.605879 19.2036
382 1 -1.1104 3.6049 -3.47472 15.1546
384 1 -1.1104 3.68246 2.1367 14.8178
386 2 2.2208 2.15857 -2.12763 16.6141
387 2 2.2208 2.25948 3.50278 16.4505
388 1 -1.1104 3.55215 -0.901783 17.9658
389 1 -1.1104 4.0005 -0.659304 15.1418
362 1 -1.1104 6.56676 2.32598 17.9905
361 1 -1.1104 6.54198 -3.43249 17.9516
390 1 -1.1104 3.81008 -0.818232 20.7229
377 1 -1.1104 6.86485 -0.665521 14.8158
369 1 -1.1104 6.60446 2.22052 15.0726
367 1 -1.1104 6.38364 -3.38398 15.0591
372 1 -1.1104 6.4561 -0.604283 17.7655
368 1 -1.1104 6.45356 -3.5231 20.7168
383 1 -1.1104 3.56053 -3.48557 20.6218
378 1 -1.1104 6.59014 -0.774137 20.5102
370 1 -1.1104 6.68424 2.16571 20.7873
366 1 -1.1104 1.02595 2.06639 20.6212
364 1 -1.1104 0.967976 -3.43216 20.6411
9171 2 2.2208 13.5714 9.18639 27.5103
396 2 2.2208 13.592 3.70534 16.4083
401 2 2.2208 10.8932 0.761451 16.3739
402 1 -1.1104 12.1362 -3.583 17.5292
403 1 -1.1104 12.2274 2.13366 17.6945
404 1 -1.1104 12.1613 -3.24271 14.8597
406 1 -1.1104 12.1376 2.18812 14.7439
408 1 -1.1104 12.2257 -0.641715 17.8916
409 2 2.2208 10.7025 -2.0527 19.0563
411 1 -1.1104 11.9801 -0.571086 14.8633
413 1 -1.1104 9.32338 -3.47581 17.8739
414 1 -1.1104 9.38155 2.31122 17.8452
415 2 2.2208 7.83291 0.875529 19.0746
416 1 -1.1104 9.28702 -3.38944 15.0386
418 1 -1.1104 9.45795 1.96265 14.8984
420 2 2.2208 8.00292 -2.01008 16.3217
422 1 -1.1104 9.22586 -0.542252 17.6388
423 1 -1.1104 9.35599 -0.633241 14.8147
421 2 2.2208 7.94483 3.51338 16.4323
410 2 2.2208 10.6634 3.62131 19.1001
407 1 -1.1104 12.2863 1.95989 20.3735
342 2 2.2208 2.56661 -2.06032 27.5689
419 1 -1.1104 9.53406 2.34835 20.6026
405 1 -1.1104 11.8987 -3.64729 20.4312
412 1 -1.1104 12.0965 -0.868704 20.6469
429 2 2.2208 13.6281 -2.15815 16.3019
417 1 -1.1104 9.12187 -3.38679 20.6861
424 1 -1.1104 9.40956 -0.274555 20.3189
345 2 2.2208 7.72201 14.8718 27.6836
434 2 2.2208 5.0116 6.43577 16.3122
435 2 2.2208 5.2293 12.0405 16.481
436 1 -1.1104 0.579964 7.95189 17.7109
438 1 -1.1104 0.670543 7.983 15.0164
442 1 -1.1104 0.887344 4.96303 17.7985
443 1 -1.1104 0.803281 10.5807 17.5703
446 2 2.2208 5.05207 9.22315 19.0998
447 1 -1.1104 0.848368 5.01297 15.1744
449 1 -1.1104 0.819761 10.7585 14.7949
455 1 -1.1104 3.53046 7.72178 17.8149
456 2 2.2208 2.02015 6.48965 19.2386
457 2 2.2208 2.13042 12.0266 19.2639
458 1 -1.1104 3.43987 7.84613 15.0114
460 2 2.2208 2.26449 9.25113 16.3015
461 1 -1.1104 3.70615 4.83426 17.6302
462 1 -1.1104 3.87563 10.6239 17.8413
463 1 -1.1104 3.70141 4.89008 15.0099
465 1 -1.1104 3.69571 10.7669 15.0455
437 1 -1.1104 6.32962 7.96844 17.5588
453 1 -1.1104 6.44477 10.8209 14.8579
444 1 -1.1104 6.37021 5.08347 17.835
451 1 -1.1104 6.49943 5.00935 14.9386
441 1 -1.1104 6.30222 7.6753 20.5251
454 1 -1.1104 6.40835 10.5448 20.3877
445 1 -1.1104 6.67561 10.6845 17.6951
439 1 -1.1104 0.696558 7.89477 20.4478
448 1 -1.1104 0.740435 4.82742 20.6677
450 1 -1.1104 0.990465 10.6631 20.3984
440 1 -1.1104 6.47118 8.0283 14.884
466 1 -1.1104 3.64251 10.4931 20.6951
459 1 -1.1104 3.81301 7.64047 20.5356
464 1 -1.1104 3.60257 4.7587 20.6329
452 1 -1.1104 6.41186 4.8871 20.6392
9507 2 2.2208 13.4861 9.10892 21.9489
9316 2 2.2208 13.4679 6.41248 19.1954
9317 2 2.2208 13.3342 11.9567 19.1067
470 2 2.2208 10.6614 6.33893 16.1711
471 2 2.2208 10.6057 12.091 16.3063
472 1 -1.1104 11.9568 7.66943 17.6563
473 1 -1.1104 12.1882 7.71891 14.8879
475 1 -1.1104 12.1565 4.83147 17.7065
476 1 -1.1104 12.1511 10.529 17.5191
477 2 2.2208 10.8196 9.00831 19.0472
478 1 -1.1104 12.2571 4.87109 14.9178
480 1 -1.1104 11.9167 10.554 14.7419
482 1 -1.1104 9.16791 7.48456 17.8122
483 2 2.2208 7.59681 6.30274 19.2491
484 2 2.2208 8.00456 12.0793 19.2144
485 1 -1.1104 9.2251 7.72847 15.0013
487 2 2.2208 7.9666 9.10398 16.4469
488 1 -1.1104 9.12217 4.71562 17.8803
489 1 -1.1104 9.36147 10.3168 17.8319
490 1 -1.1104 9.41086 4.58377 15.0142
492 1 -1.1104 9.25168 10.7471 15.0552
493 1 -1.1104 9.26916 10.8167 20.7105
491 1 -1.1104 9.22922 5.18998 20.5345
486 1 -1.1104 9.32242 7.84406 20.5799
9315 2 2.2208 13.5745 9.20428 16.2121
481 1 -1.1104 11.9664 10.4727 20.4383
479 1 -1.1104 12.1324 5.00709 20.6444
474 1 -1.1104 12.1184 7.74861 20.3839
497 2 2.2208 4.9278 17.7482 16.1659
498 1 -1.1104 0.724832 13.4434 17.9331
499 1 -1.1104 0.534627 18.9458 17.8045
502 1 -1.1104 0.858784 13.6473 14.919
504 1 -1.1104 0.864826 19.0921 15.0507
510 1 -1.1104 0.825362 16.2519 17.6389
512 2 2.2208 5.02687 14.9318 19.1608
513 2 2.2208 5.09965 20.5095 19.0722
514 1 -1.1104 0.865246 16.328 14.8186
518 1 -1.1104 3.6789 13.4198 17.7042
519 1 -1.1104 3.49836 19.098 17.5676
520 2 2.2208 2.12382 17.6626 19.186
521 1 -1.1104 3.52931 13.5286 15.0109
523 1 -1.1104 3.63452 19.1503 15.0051
525 2 2.2208 2.25149 14.8291 16.3866
526 2 2.2208 1.98598 20.5248 16.4266
527 1 -1.1104 3.67798 16.3242 17.7178
528 1 -1.1104 3.7473 16.3533 14.7913
516 1 -1.1104 6.60842 16.1832 15.0478
500 1 -1.1104 6.40842 13.5101 17.8055
501 1 -1.1104 6.49329 19.1441 17.7602
511 1 -1.1104 6.44534 16.4094 17.6808
508 1 -1.1104 6.40037 19.0912 14.8124
506 1 -1.1104 6.53313 13.363 14.872
529 1 -1.1104 3.60265 16.3873 20.6312
509 1 -1.1104 6.32393 19.1847 20.6524
517 1 -1.1104 6.31528 16.2276 20.6874
522 1 -1.1104 3.62037 13.3467 20.542
503 1 -1.1104 0.78424 13.3886 20.6722
524 1 -1.1104 3.7658 19.1046 20.5667
515 1 -1.1104 0.650377 16.1263 20.629
505 1 -1.1104 0.744861 19.0421 20.7421
348 2 2.2208 7.87174 3.51186 27.6079
9388 2 2.2208 13.4013 20.3927 16.5449
9387 2 2.2208 13.5282 17.5615 19.2994
551 1 -1.1104 9.0874 19.0986 20.4726
533 2 2.2208 10.6062 17.5116 16.615
534 1 -1.1104 12.1411 13.5043 17.877
535 1 -1.1104 11.9947 19.0745 17.95
536 1 -1.1104 12.1332 13.2793 15.0355
538 1 -1.1104 12.1598 18.7564 15.1328
540 1 -1.1104 12.1563 16.2024 17.7168
541 2 2.2208 10.6126 14.8049 19.1841
542 2 2.2208 10.5338 20.4235 19.1463
543 1 -1.1104 12.2001 16.0807 14.8917
545 1 -1.1104 9.20945 13.4516 17.6663
546 1 -1.1104 9.22657 19.1021 17.7703
547 2 2.2208 7.74105 17.6325 19.1074
548 1 -1.1104 9.25906 13.3648 14.9374
550 1 -1.1104 9.20387 18.9448 14.9072
552 2 2.2208 7.84877 14.8491 16.3551
553 2 2.2208 7.71999 20.4721 16.314
554 1 -1.1104 9.31485 16.1878 17.8411
555 1 -1.1104 9.35827 16.0078 14.9383
539 1 -1.1104 12.1111 19.1085 20.6492
537 1 -1.1104 12.0973 13.4222 20.6169
549 1 -1.1104 9.29171 13.6122 20.4798
544 1 -1.1104 11.9892 16.1752 20.6729
9385 2 2.2208 13.5559 14.8087 16.4132
376 1 -1.1104 0.987266 -0.687554 20.6663
385 1 -1.1104 3.68276 1.97755 20.4363
594 2 2.2208 -0.350999 -2.02168 24.8928
398 1 -1.1104 9.18879 19.1234 23.1712
561 2 2.2208 5.14201 0.610361 21.9548
562 1 -1.1104 0.995836 -3.28353 23.4956
563 1 -1.1104 0.874455 2.2897 23.4858
566 1 -1.1104 1.03878 -3.74907 26.2476
567 1 -1.1104 0.83865 2.19824 26.229
570 1 -1.1104 0.847067 -0.525171 23.3284
572 2 2.2208 5.18293 -2.14654 24.8218
574 1 -1.1104 1.12438 -0.688534 26.2747
576 1 -1.1104 3.76326 -3.51374 23.5636
577 1 -1.1104 3.50576 1.97572 23.4086
578 2 2.2208 2.27596 0.713762 24.7851
579 1 -1.1104 3.8032 -3.58335 26.2733
580 1 -1.1104 3.58443 2.05853 26.3203
581 2 2.2208 2.30939 -2.02211 22.0723
583 1 -1.1104 3.77215 -0.7265 23.4472
584 1 -1.1104 3.77776 -0.709031 26.2945
573 2 2.2208 4.89938 3.36672 24.7668
575 1 -1.1104 6.76811 -0.659902 26.1239
564 1 -1.1104 6.36946 -3.60106 23.403
565 1 -1.1104 6.28278 1.79137 23.4817
569 1 -1.1104 6.39239 2.26065 26.1559
571 1 -1.1104 6.61055 -0.773724 23.1901
582 2 2.2208 2.21246 3.47104 21.9927
568 1 -1.1104 6.53793 -3.5036 26.062
678 1 -1.1104 12.1613 19.0769 26.2425
426 2 2.2208 10.7102 -4.75991 16.2522
354 2 2.2208 5.06438 11.9449 27.5552
350 2 2.2208 10.6766 17.5718 27.7278
9287 2 2.2208 13.5354 0.680052 24.822
623 2 2.2208 13.5505 -2.06012 22.1593
9448 2 2.2208 13.4598 3.49483 21.9055
597 2 2.2208 10.6913 0.719283 21.8663
598 1 -1.1104 12.3476 -3.64273 23.2318
599 1 -1.1104 12.2168 1.95557 23.1227
600 1 -1.1104 12.1831 -3.50075 26.0541
601 1 -1.1104 12.1965 2.23608 25.9358
602 1 -1.1104 12.2812 -0.81139 23.486
603 2 2.2208 10.8006 -2.19748 24.7263
604 2 2.2208 10.7721 3.57095 24.7315
605 1 -1.1104 12.3109 -0.555896 26.3121
606 1 -1.1104 9.39236 -3.57823 23.4611
607 1 -1.1104 9.28095 2.17914 23.5002
608 2 2.2208 8.00233 0.741586 24.8216
609 1 -1.1104 9.1599 -3.5398 26.3065
610 1 -1.1104 9.53077 2.24639 26.3037
611 2 2.2208 7.957 -2.0381 21.8902
612 2 2.2208 7.99803 3.55757 21.9695
613 1 -1.1104 9.38298 -0.715204 23.3079
614 1 -1.1104 9.46393 -0.622614 26.0281
333 2 2.2208 2.23731 14.7026 27.5507
347 2 2.2208 7.85442 -2.12585 27.5817
432 1 -1.1104 9.43101 19.0392 26.1559
9177 2 2.2208 13.4569 3.59958 27.5621
357 2 2.2208 10.8442 12.0058 27.5894
353 2 2.2208 2.18349 9.17517 27.637
352 2 2.2208 5.00089 6.22635 27.6242
626 2 2.2208 5.01248 6.13048 21.9844
627 2 2.2208 5.12663 12.0039 22.0303
628 1 -1.1104 0.952093 7.8448 23.4886
630 1 -1.1104 0.763766 7.83311 26.3581
632 1 -1.1104 0.739229 5.10994 23.5753
633 1 -1.1104 0.634504 10.4235 23.1038
636 2 2.2208 5.14808 8.97311 24.7224
637 1 -1.1104 1.03771 4.92134 26.5281
638 1 -1.1104 0.859998 10.6272 26.1482
641 1 -1.1104 3.75311 7.53864 23.3899
642 2 2.2208 2.12309 6.3209 24.9678
643 2 2.2208 2.43712 11.7974 24.7618
644 1 -1.1104 3.58977 7.80474 26.2561
645 2 2.2208 2.26893 9.1211 21.9352
646 1 -1.1104 3.56534 4.79505 23.4062
647 1 -1.1104 3.73894 10.421 23.4229
648 1 -1.1104 3.71795 4.90041 26.1432
649 1 -1.1104 3.7864 10.4273 26.1003
629 1 -1.1104 6.61347 7.66548 23.2214
634 1 -1.1104 6.36832 4.78636 23.3119
635 1 -1.1104 6.427 10.5169 23.3076
631 1 -1.1104 6.50915 7.65463 26.0296
639 1 -1.1104 6.34949 5.02625 26.2547
640 1 -1.1104 6.62005 10.5402 26.1499
346 2 2.2208 10.8343 0.867442 27.5442
9314 2 2.2208 13.6332 17.6479 24.8864
349 2 2.2208 13.5465 -2.10419 27.5206
9243 2 2.2208 13.5192 6.39171 24.8222
9244 2 2.2208 13.4861 11.9581 24.8276
657 1 -1.1104 9.35382 10.4912 26.3475
658 1 -1.1104 9.24048 4.84456 26.2565
659 1 -1.1104 9.29454 10.3451 23.5612
660 1 -1.1104 9.28518 4.98161 23.4437
661 2 2.2208 7.80272 9.1817 21.9453
662 1 -1.1104 9.26859 7.72118 26.0091
663 2 2.2208 7.89767 11.8992 24.7078
664 2 2.2208 7.80672 6.16497 24.7311
665 2 2.2208 10.8118 6.47515 21.9441
666 2 2.2208 10.7831 11.9603 22.0433
667 1 -1.1104 12.2244 7.63692 23.4241
668 1 -1.1104 12.2242 7.74427 26.1097
669 1 -1.1104 12.1585 4.9796 23.4794
670 1 -1.1104 12.1281 10.5695 23.3206
671 2 2.2208 10.7471 9.12459 24.8365
672 1 -1.1104 11.9181 5.09285 26.1391
673 1 -1.1104 12.0788 10.6306 26.2145
674 1 -1.1104 9.39523 7.65729 23.4841
9288 2 2.2208 13.5663 20.4916 21.8448
468 1 -1.1104 9.21769 16.2768 23.4557
507 1 -1.1104 6.43289 13.4965 20.7154
676 1 -1.1104 6.51142 13.4337 26.1165
616 1 -1.1104 6.6137 13.2329 23.4561
624 1 -1.1104 6.52727 18.9673 23.4412
531 2 2.2208 2.29461 14.7314 21.8866
532 2 2.2208 2.1003 20.4613 22.0103
557 1 -1.1104 3.74442 15.8895 23.1069
558 1 -1.1104 0.830136 16.1072 23.4324
560 1 -1.1104 3.77216 13.3545 26.0908
585 1 -1.1104 3.63719 16.2179 26.0944
586 2 2.2208 2.19186 17.5606 24.8418
587 1 -1.1104 3.75302 19.0856 26.447
593 2 2.2208 5.09996 17.605 22.034
596 1 -1.1104 0.770842 13.3401 23.4807
615 1 -1.1104 0.811664 18.954 23.5641
617 2 2.2208 5.14846 14.7798 24.6979
622 2 2.2208 5.03423 20.4423 24.8228
625 1 -1.1104 0.826694 13.4181 26.2687
650 1 -1.1104 0.761207 16.3076 26.3514
651 1 -1.1104 0.913561 19.0494 26.3051
675 1 -1.1104 3.78891 13.2887 23.2725
677 1 -1.1104 3.5593 18.8491 23.5922
559 1 -1.1104 6.52451 16.0775 23.459
400 1 -1.1104 6.47509 18.9586 26.2263
652 1 -1.1104 6.34619 16.2102 26.2662
9181 2 2.2208 13.5361 14.7291 27.6207
433 2 2.2208 7.84981 14.9429 21.9894
556 1 -1.1104 9.03087 16.3783 20.5882
530 2 2.2208 10.7075 20.2347 24.6504
653 2 2.2208 10.6005 17.6469 21.9321
680 2 2.2208 10.6481 14.9323 24.8693
399 2 2.2208 7.90636 17.6527 24.9577
343 2 2.2208 2.40258 3.58695 27.6722
9318 2 2.2208 13.4217 14.8989 21.9966
655 1 -1.1104 12.1653 18.9741 23.5463
494 1 -1.1104 9.47859 13.1675 23.3358
656 1 -1.1104 11.975 13.4813 26.3216
496 1 -1.1104 12.1151 16.2604 26.1323
431 1 -1.1104 9.39505 13.3947 26.2057
654 1 -1.1104 12.165 13.4756 23.4819
679 1 -1.1104 12.2307 16.2299 23.5081
467 2 2.2208 7.78197 20.4708 21.8698
469 1 -1.1104 9.15441 16.1598 26.2471
340 2 2.2208 13.5348 20.4155 27.71
334 2 2.2208 4.9469 17.5249 27.6692
341 2 2.2208 5.04845 0.708189 27.6974
355 2 2.2208 10.542 6.40946 27.6695
356 2 2.2208 7.81926 9.12684 27.536
344 2 2.2208 -0.348822 0.880648 27.6323
681 2 2.2208 5.13197 23.2051 5.07934
682 2 2.2208 4.91275 28.909 5.11375
683 1 -1.1104 0.676936 24.8683 0.6536
684 1 -1.1104 0.828677 24.6241 3.69046
685 1 -1.1104 0.668298 22.0178 1.03922
686 1 -1.1104 0.765652 27.4878 0.985527
687 2 2.2208 4.95831 26.2056 2.26077
688 1 -1.1104 1.02114 21.9509 3.84573
689 1 -1.1104 1.05354 27.5795 3.8296
690 1 -1.1104 3.61025 24.3703 1.1917
691 2 2.2208 2.20926 23.2417 2.33492
692 2 2.2208 2.29703 28.8872 2.37702
693 1 -1.1104 3.69241 24.8836 3.7846
694 2 2.2208 2.31435 26.0903 5.15594
695 1 -1.1104 3.57458 21.5983 1.00653
696 1 -1.1104 3.47814 27.2966 1.01111
697 1 -1.1104 3.6216 21.9526 3.82081
698 1 -1.1104 3.77542 27.5451 3.75326
705 1 -1.1104 6.38476 27.4909 0.810625
703 1 -1.1104 6.45826 24.6844 3.66466
704 1 -1.1104 6.48169 21.9443 0.752654
707 1 -1.1104 6.30472 27.5775 3.76081
706 1 -1.1104 6.40693 21.7126 3.70451
823 1 -1.1104 6.4369 24.6334 6.62229
822 1 -1.1104 0.882284 24.6784 6.54211
829 1 -1.1104 3.95487 21.7475 6.5344
702 1 -1.1104 6.41525 24.7414 0.922065
826 1 -1.1104 6.63399 21.8653 6.6599
824 1 -1.1104 0.95204 21.7416 6.69564
825 1 -1.1104 0.819247 27.3298 6.64208
830 1 -1.1104 3.58328 27.4949 6.49685
1012 2 2.2208 5.1208 42.9394 13.6664
708 2 2.2208 10.9946 23.2392 5.14734
709 2 2.2208 10.6284 29.0115 5.10258
710 1 -1.1104 12.2158 24.6102 0.9142
711 1 -1.1104 12.0247 24.6346 3.68384
712 1 -1.1104 11.9411 21.9075 0.775786
713 1 -1.1104 12.0511 27.3915 0.925118
714 2 2.2208 10.7689 26.0214 2.19891
715 1 -1.1104 12.2206 21.8146 3.55678
716 1 -1.1104 12.341 27.5448 3.70031
717 1 -1.1104 9.37258 24.7232 0.993536
718 2 2.2208 7.98786 23.4903 2.46363
719 2 2.2208 7.8388 29.0522 2.46808
720 1 -1.1104 9.1234 24.9439 3.7793
721 2 2.2208 7.7898 26.3086 5.32812
722 1 -1.1104 9.06941 21.7257 1.04336
723 1 -1.1104 9.21537 27.4345 0.906411
724 1 -1.1104 9.44793 22.0468 3.728
725 1 -1.1104 9.35099 27.6897 3.65843
1015 2 2.2208 2.18862 45.8568 13.5102
859 1 -1.1104 9.58837 22.0429 6.57367
855 1 -1.1104 12.383 24.6997 6.56742
1578 1 -1.1104 3.61763 47.1201 9.28548
860 1 -1.1104 9.17996 27.5326 6.51995
856 1 -1.1104 12.2596 21.7359 6.57059
858 1 -1.1104 9.34639 24.8447 6.49249
9880 2 2.2208 13.5946 34.7117 13.3898
9863 2 2.2208 13.46 23.238 2.23802
1013 2 2.2208 2.33359 40.1888 13.5899
729 2 2.2208 4.8551 34.6955 5.08641
730 1 -1.1104 0.833238 30.4751 0.774659
731 1 -1.1104 0.948719 35.8472 0.727845
733 1 -1.1104 0.805873 30.2278 3.65181
734 1 -1.1104 0.705061 36.0051 3.6228
736 1 -1.1104 0.823653 33.0421 0.889088
737 2 2.2208 5.02972 31.8023 2.43196
738 2 2.2208 5.13421 37.1117 2.3161
739 1 -1.1104 0.702037 33.2701 3.78475
741 1 -1.1104 3.70647 30.1356 0.819986
742 1 -1.1104 3.75375 35.8939 0.906901
743 2 2.2208 2.30041 34.4867 2.19828
744 1 -1.1104 3.58106 30.3989 3.55646
745 1 -1.1104 3.41549 35.8619 3.56595
746 2 2.2208 2.17648 31.8124 5.14387
747 2 2.2208 2.17681 37.2802 5.06852
748 1 -1.1104 3.63497 32.9943 0.854174
749 1 -1.1104 3.56475 33.1003 3.69817
735 1 -1.1104 6.36538 35.8267 3.90397
754 1 -1.1104 6.445 30.3202 3.88607
886 1 -1.1104 3.62404 35.8432 6.51266
880 1 -1.1104 0.797794 35.9766 6.4591
883 1 -1.1104 0.913171 33.0933 6.6247
740 1 -1.1104 6.47972 33.2096 3.78846
755 1 -1.1104 6.46142 33.0416 1.03785
887 1 -1.1104 3.59063 33.1024 6.63092
879 1 -1.1104 0.778903 30.2555 6.56905
884 1 -1.1104 6.36286 33.0506 6.60256
753 1 -1.1104 6.48518 30.3351 1.1636
732 1 -1.1104 6.38053 35.8977 0.964879
881 1 -1.1104 6.22366 30.4025 6.38943
885 1 -1.1104 3.4958 30.2919 6.41527
991 2 2.2208 13.4298 37.552 5.24278
756 2 2.2208 10.5543 34.6139 5.12196
757 1 -1.1104 12.1165 30.1806 0.888616
758 1 -1.1104 12.0793 36.258 0.7264
759 1 -1.1104 12.0913 30.2143 3.6217
760 1 -1.1104 11.9699 35.8258 3.65538
761 1 -1.1104 12.1889 33.222 0.935009
762 2 2.2208 10.6747 31.7102 2.4165
763 2 2.2208 10.7588 37.4786 2.40771
764 1 -1.1104 11.9622 33.1384 3.7159
765 1 -1.1104 9.0834 30.2722 1.14822
766 1 -1.1104 9.07236 35.9681 0.748846
767 2 2.2208 7.94774 34.535 2.34014
768 1 -1.1104 9.34645 30.6211 3.8901
769 1 -1.1104 9.33357 35.947 3.65685
770 2 2.2208 7.77824 31.853 5.27116
771 2 2.2208 7.83539 37.3937 5.10969
772 1 -1.1104 9.37961 33.0627 0.905291
773 1 -1.1104 9.22649 33.0967 3.91194