LAMMPS (29 Oct 2020)
OMP_NUM_THREADS environment is not set. Defaulting to 1 thread. (../comm.cpp:94)
  using 1 OpenMP thread(s) per MPI task
OMP_NUM_THREADS environment is not set. Defaulting to 1 thread. (../comm.cpp:94)
  using 1 OpenMP thread(s) per MPI task
Reading data file ...
  orthogonal box = (-0.35342047 -4.2231946 -0.35541377) to (27.693420 332.30319 27.695414)
  2 by 13 by 2 MPI processor grid
  reading atoms ...
  17700 atoms
  reading velocities ...
  17700 velocities
Finding 1-2 1-3 1-4 neighbors ...
  special bond factors lj:    0.0      0.0      0.0     
  special bond factors coul:  0.0      0.0      0.0     
     0 = max # of 1-2 neighbors
     0 = max # of 1-3 neighbors
     0 = max # of 1-4 neighbors
     1 = max # of special neighbors
  special bonds CPU = 0.004 seconds
  read_data CPU = 0.071 seconds
WARNING: 13 of 1000 force values in table Xe-Xe are inconsistent with -dE/dr.
  Should only be flagged at inflection points (../pair_table.cpp:461)
WARNING: 2 of 1000 force values in table Xe-O are inconsistent with -dE/dr.
  Should only be flagged at inflection points (../pair_table.cpp:461)
WARNING: 2 of 1000 force values in table Xe-Th are inconsistent with -dE/dr.
  Should only be flagged at inflection points (../pair_table.cpp:461)
Setting atom values ...
  11760 settings made for charge
Setting atom values ...
  5880 settings made for charge
Setting atom values ...
  60 settings made for charge
PPPM initialization ...
  using 12-bit tables for long-range coulomb (../kspace.cpp:328)
  G vector (1/distance) = 0.29883713
  grid = 40 240 40
  stencil order = 5
  estimated absolute RMS force accuracy = 0.0001557301
  estimated relative force accuracy = 1.0814857e-05
  using single precision MKL FFT
  3d grid and FFT values/proc = 18225 7600
Neighbor list info ...
  update every 1 steps, delay 0 steps, check yes
  max neighbors/atom: 2000, page size: 100000
  master list distance cutoff = 13
  ghost atom cutoff = 13
  binsize = 6.5, bins = 5 52 5
  3 neighbor lists, perpetual/occasional/extra = 3 0 0
  (1) pair coul/long, perpetual
      attributes: half, newton on
      pair build: half/bin/newton
      stencil: half/bin/3d/newton
      bin: standard
  (2) pair eam/alloy, perpetual, skip from (1)
      attributes: half, newton on
      pair build: skip
      stencil: none
      bin: none
  (3) pair table, perpetual, skip from (1)
      attributes: half, newton on
      pair build: skip
      stencil: none
      bin: none
Setting up Verlet run ...
  Unit style    : metal
  Current step  : 0
  Time step     : 0.001
Per MPI rank memory allocation (min/avg/max) = 9.249 | 9.913 | 10.04 Mbytes
Step Temp E_pair E_mol TotEng Press 
       0          600   -230577.93            0   -229205.26    505.83511 
  100000    598.15877   -230584.56            0    -229216.1    679.97338 
Loop time of 701.306 on 52 procs for 100000 steps with 17700 atoms

Performance: 12.320 ns/day, 1.948 hours/ns, 142.591 timesteps/s
99.8% CPU use with 52 MPI tasks x 1 OpenMP threads

MPI task timing breakdown:
Section |  min time  |  avg time  |  max time  |%varavg| %total
---------------------------------------------------------------
Pair    | 478.03     | 507.53     | 525.99     |  45.3 | 72.37
Bond    | 0.0084632  | 0.014108   | 0.026365   |   2.7 |  0.00
Kspace  | 151.86     | 169.44     | 198.14     |  76.0 | 24.16
Neigh   | 1.9462     | 2.3732     | 2.5781     |   9.8 |  0.34
Comm    | 14.878     | 15.792     | 17.51      |  18.7 |  2.25
Output  | 5.9195e-05 | 6.5253e-05 | 0.00030993 |   0.0 |  0.00
Modify  | 2.8915     | 4.5306     | 5.9617     |  52.6 |  0.65
Other   |            | 1.628      |            |       |  0.23

Nlocal:        340.385 ave         367 max         306 min
Histogram: 4 3 1 3 7 14 7 1 5 7
Nghost:        5537.81 ave        5700 max        5350 min
Histogram: 4 8 0 1 3 16 8 4 0 8
Neighs:       107750.0 ave      118022 max       83881 min
Histogram: 3 0 1 4 0 2 7 20 3 12

Total # of neighbors = 5603011
Ave neighs/atom = 316.55429
Ave special neighs/atom = 0.0000000
Neighbor list builds = 767
Dangerous builds = 0
11760 atoms in group oxygen
PPPM initialization ...
  using 12-bit tables for long-range coulomb (../kspace.cpp:328)
  G vector (1/distance) = 0.29883713
  grid = 40 240 40
  stencil order = 5
  estimated absolute RMS force accuracy = 0.0001557301
  estimated relative force accuracy = 1.0814857e-05
  using single precision MKL FFT
  3d grid and FFT values/proc = 18225 7600
Neighbor list info ...
  update every 1 steps, delay 0 steps, check yes
  max neighbors/atom: 2000, page size: 100000
  master list distance cutoff = 13
  ghost atom cutoff = 13
  binsize = 6.5, bins = 5 52 5
  3 neighbor lists, perpetual/occasional/extra = 3 0 0
  (1) pair coul/long, perpetual
      attributes: half, newton on
      pair build: half/bin/newton
      stencil: half/bin/3d/newton
      bin: standard
  (2) pair eam/alloy, perpetual, skip from (1)
      attributes: half, newton on
      pair build: skip
      stencil: none
      bin: none
  (3) pair table, perpetual, skip from (1)
      attributes: half, newton on
      pair build: skip
      stencil: none
      bin: none
Setting up Verlet run ...
  Unit style    : metal
  Current step  : 0
  Time step     : 0.001
Per MPI rank memory allocation (min/avg/max) = 9.499 | 10.15 | 10.29 Mbytes
Step f_2 Temp v_Tdiff v_deltaT 
       0            0    598.15877            0            0 
  100000    700.28985    595.95674  0.018343731    212.96902 
  200000    1388.1097    595.94398  0.019816354    230.06603 
  300000    2071.5985    598.69515  0.020630347    239.51641 
  400000     2753.261    599.38912  0.020380378     236.6143 
  500000    3443.1541    597.87134  0.019951089    231.63029 
  600000    4127.6441    597.36408   0.02029896    235.66904 
  700000    4810.8951    595.34138  0.019964821    231.78971 
  800000    5496.5671    597.11394  0.020519798    238.23295 
  900000    6182.6081    597.95841  0.019663071    228.28643 
 1000000    6871.2392    600.50854  0.019503834    226.43771 
Loop time of 7050.78 on 52 procs for 1000000 steps with 17700 atoms

Performance: 12.254 ns/day, 1.959 hours/ns, 141.828 timesteps/s
99.8% CPU use with 52 MPI tasks x 1 OpenMP threads

MPI task timing breakdown:
Section |  min time  |  avg time  |  max time  |%varavg| %total
---------------------------------------------------------------
Pair    | 4780       | 5078       | 5258.2     | 140.6 | 72.02
Bond    | 0.09028    | 0.14348    | 0.24745    |   8.5 |  0.00
Kspace  | 1568.1     | 1737.5     | 2024.9     | 229.8 | 24.64
Neigh   | 20.165     | 24.554     | 26.551     |  31.7 |  0.35
Comm    | 147.31     | 158.07     | 174.26     |  55.7 |  2.24
Output  | 0.0012289  | 0.0013112  | 0.0023532  |   0.4 |  0.00
Modify  | 6.2453     | 6.7388     | 7.5778     |  10.8 |  0.10
Other   |            | 45.77      |            |       |  0.65

Nlocal:        340.385 ave         373 max         307 min
Histogram: 5 2 1 3 10 14 7 5 4 1
Nghost:        5528.56 ave        5704 max        5295 min
Histogram: 4 1 11 0 0 4 20 0 0 12
Neighs:       107763.0 ave      119411 max       85948 min
Histogram: 4 0 2 1 1 4 12 15 10 3

Total # of neighbors = 5603675
Ave neighs/atom = 316.59181
Ave special neighs/atom = 0.0000000
Neighbor list builds = 7961
Dangerous builds = 0
Total wall time: 2:09:12
