ITEM: TIMESTEP
20000
ITEM: NUMBER OF ATOMS
17700
ITEM: BOX BOUNDS pp pp pp
-4.2892247876981721e-01 2.7768922478769824e+01
-5.5235986000292367e+00 3.3360359860002745e+02
-4.4075189147876953e-01 2.7780751891478594e+01
ITEM: ATOMS id type q x y z
1 2 2.2208 5.44698 0.171395 5.13839
2 1 -1.1104 0.843631 -4.1277 1.02445
6 1 -1.1104 1.01125 -3.79324 3.71514
10 1 -1.1104 1.16839 -1.26293 0.644213
12 2 2.2208 5.31257 -2.71878 2.30378
14 1 -1.1104 1.16413 -1.12309 3.85437
16 1 -1.1104 3.71094 -4.27881 1.18679
18 2 2.2208 2.49195 0.182989 2.32713
19 1 -1.1104 3.67703 -4.12463 3.95042
21 2 2.2208 2.46842 -2.60228 5.13502
23 1 -1.1104 3.91855 -1.17392 0.684843
24 1 -1.1104 3.77133 -1.27237 3.63316
348 2 2.2208 8.17114 2.90991 -0.316332
231 2 2.2208 8.07256 -5.47951 7.86067
174 1 -1.1104 4.15284 -1.30892 6.34377
166 1 -1.1104 1.15777 -4.05016 6.49129
200 2 2.2208 -0.315843 -2.70416 7.8014
29 2 2.2208 5.14253 -5.4366 5.21723
15 1 -1.1104 6.5699 -1.30243 3.58113
168 1 -1.1104 6.69123 -4.1503 6.37644
8 1 -1.1104 6.73162 -3.89338 3.71108
4 1 -1.1104 6.40586 -3.98379 0.882488
11 1 -1.1104 6.78342 -1.29047 0.961147
31 2 2.2208 10.8778 0.241338 4.93687
32 1 -1.1104 12.3822 -3.91334 0.819223
34 1 -1.1104 12.2575 -4.19724 3.75907
36 1 -1.1104 12.3404 -1.22557 0.651055
37 2 2.2208 10.9648 -2.64573 2.31899
39 1 -1.1104 12.4763 -1.3558 3.52958
40 1 -1.1104 9.53989 -4.16578 1.13078
42 2 2.2208 8.0929 0.140436 2.24147
43 1 -1.1104 9.41928 -4.03737 3.84366
45 2 2.2208 8.07306 -2.64451 4.97527
47 1 -1.1104 9.5584 -1.55106 0.752333
48 1 -1.1104 9.5058 -1.15322 3.71039
330 2 2.2208 7.95826 11.2513 13.5702
171 1 -1.1104 6.81115 -1.41962 6.54169
205 1 -1.1104 12.4819 -4.21086 6.62256
208 1 -1.1104 9.72278 -4.35249 6.64177
9163 2 2.2208 -0.342338 19.9833 7.90354
326 2 2.2208 5.39485 8.63595 13.4858
104 1 -1.1104 12.2869 18.6653 9.18294
588 2 2.2208 -0.403052 -5.31818 -0.2399
3 1 -1.1104 0.932061 1.48994 0.812548
7 1 -1.1104 0.861654 1.49222 3.5944
13 2 2.2208 5.17729 2.77653 2.33314
17 1 -1.1104 3.9134 1.44753 0.916156
20 1 -1.1104 3.87748 1.62133 3.65811
22 2 2.2208 2.43129 2.89684 5.09684
54 2 2.2208 5.20188 5.81558 5.01145
56 1 -1.1104 1.00434 7.27796 1.11148
58 1 -1.1104 1.36946 7.09548 3.98627
60 1 -1.1104 1.12287 4.44224 1.0203
67 1 -1.1104 1.07495 4.31598 3.81196
72 2 2.2208 2.35894 5.76062 2.38944
74 1 -1.1104 3.92614 7.32038 3.61268
76 1 -1.1104 3.60151 4.22582 1.05511
79 1 -1.1104 3.96919 4.38702 3.8739
71 1 -1.1104 3.94291 7.33522 0.980819
69 1 -1.1104 6.63897 4.26875 3.6873
59 1 -1.1104 6.86253 7.10476 3.78844
63 1 -1.1104 6.47807 4.22448 0.927884
239 1 -1.1104 3.62838 4.24735 6.59088
167 1 -1.1104 1.2826 1.31273 6.36766
173 1 -1.1104 4.12254 1.49407 6.46457
234 1 -1.1104 1.12416 7.2912 6.8103
51 2 2.2208 8.10358 -5.43945 2.43767
9 1 -1.1104 6.67755 1.43866 3.51941
5 1 -1.1104 6.85397 1.55693 0.793411
33 1 -1.1104 12.2626 1.66761 0.857726
35 1 -1.1104 12.1705 1.66171 3.69149
38 2 2.2208 10.8318 3.07106 2.46016
41 1 -1.1104 9.47742 1.57679 1.00166
44 1 -1.1104 9.29791 1.61937 3.8507
46 2 2.2208 8.08245 2.95145 5.175
84 2 2.2208 10.9727 5.7157 5.3231
86 1 -1.1104 12.435 7.21299 0.899659
87 1 -1.1104 12.488 6.90841 3.89007
88 1 -1.1104 12.3576 4.61197 0.908164
92 1 -1.1104 12.5631 4.22971 3.81872
94 1 -1.1104 9.34711 7.41356 1.06661
95 2 2.2208 8.02243 5.71702 2.56642
97 1 -1.1104 9.67865 7.03402 3.7585
99 1 -1.1104 9.31041 4.38011 1.04261
102 1 -1.1104 9.69015 4.33899 4.04077
235 1 -1.1104 6.60197 7.17732 6.47729
57 1 -1.1104 6.53701 7.1555 1.02809
237 1 -1.1104 6.60232 4.52487 6.2978
266 1 -1.1104 12.3766 4.29522 6.72904
329 2 2.2208 10.9092 8.58132 13.5841
289 1 -1.1104 6.689 15.7637 9.45403
28 2 2.2208 2.47927 -5.45354 2.50058
9161 2 2.2208 -0.188384 2.94047 7.90085
55 2 2.2208 5.30634 11.4847 5.17916
61 1 -1.1104 1.06787 9.9061 1.01733
66 2 2.2208 5.24135 8.6311 2.32676
68 1 -1.1104 1.06119 9.98879 3.80293
73 2 2.2208 2.48342 11.508 2.32252
75 2 2.2208 2.50265 8.5135 5.22446
77 1 -1.1104 3.59822 10.1083 0.857935
80 1 -1.1104 3.94405 10.1514 3.76128
107 1 -1.1104 1.25895 12.6135 1.05369
113 1 -1.1104 0.908642 12.791 3.66193
123 1 -1.1104 3.96556 12.6493 0.785619
128 1 -1.1104 3.72426 12.8293 3.75987
78 1 -1.1104 4.11986 9.62201 6.47519
108 1 -1.1104 1.0667 12.8712 6.54947
110 1 -1.1104 6.87714 12.7893 0.881155
327 2 2.2208 2.49477 11.3706 13.4559
62 1 -1.1104 1.15337 10.0711 6.54514
124 1 -1.1104 3.86902 12.7759 6.58854
9149 2 2.2208 -0.403863 2.8907 2.14249
64 1 -1.1104 6.55321 10.2361 0.694474
70 1 -1.1104 6.91757 9.95026 3.52369
115 1 -1.1104 6.64889 12.7967 3.7786
85 2 2.2208 11.2435 11.4601 5.19527
89 1 -1.1104 12.428 9.85211 0.764469
91 2 2.2208 11.0408 8.66933 2.18662
93 1 -1.1104 12.5661 9.96906 3.59378
96 2 2.2208 8.15837 11.4976 2.2182
98 2 2.2208 8.27776 8.58897 4.96917
100 1 -1.1104 9.85034 10.288 0.850813
103 1 -1.1104 9.91915 9.99661 3.71686
142 1 -1.1104 12.3543 12.8233 0.832489
146 1 -1.1104 12.3932 12.702 3.62801
153 1 -1.1104 9.4493 12.9298 0.827897
158 1 -1.1104 9.73387 12.7767 3.55975
65 1 -1.1104 6.99755 9.99548 6.30324
90 1 -1.1104 12.5596 9.98709 6.6989
288 1 -1.1104 6.58298 18.5711 9.23069
106 2 2.2208 5.20183 17.0338 5.3575
109 1 -1.1104 0.755795 18.3718 0.983232
114 1 -1.1104 0.954881 18.4869 3.68799
116 1 -1.1104 0.9092 15.434 0.780099
119 2 2.2208 5.44787 14.3642 2.25716
120 2 2.2208 5.21279 19.6876 2.16191
121 1 -1.1104 0.827909 15.6377 3.64746
125 1 -1.1104 3.73931 18.3931 0.807958
127 2 2.2208 2.31784 17.1898 2.39152
129 1 -1.1104 3.72101 18.46 3.99951
130 2 2.2208 2.52769 14.1952 5.16497
131 2 2.2208 2.36427 19.761 5.24942
132 1 -1.1104 3.88902 15.5534 0.646702
134 1 -1.1104 3.82142 15.7478 3.62664
117 1 -1.1104 1.23078 15.6264 6.46039
138 1 -1.1104 6.75412 18.6334 0.78358
137 1 -1.1104 12.5355 15.611 9.28012
9164 2 2.2208 -0.278135 17.0046 10.9254
126 1 -1.1104 3.95597 18.4387 6.6568
302 1 -1.1104 1.06246 18.4352 6.62227
133 1 -1.1104 4.09555 15.6474 6.53139
9154 2 2.2208 -0.323337 11.3379 5.17829
9196 2 2.2208 -0.229995 14.2014 13.396
9112 2 2.2208 13.5832 19.9116 10.8846
139 1 -1.1104 6.67906 18.3415 3.90311
140 1 -1.1104 6.79124 15.704 1.03509
122 1 -1.1104 6.78174 15.5106 3.89081
160 2 2.2208 8.0978 14.1334 5.12896
150 2 2.2208 10.8665 14.1484 2.35946
141 2 2.2208 11.0304 17.0855 5.14137
144 1 -1.1104 12.293 18.4317 0.928649
147 1 -1.1104 12.3545 18.4831 3.75554
148 1 -1.1104 12.4428 15.6113 0.961794
151 2 2.2208 10.8168 19.7566 2.31654
152 1 -1.1104 12.2689 15.4936 3.7613
155 1 -1.1104 9.55138 18.3107 1.14408
157 2 2.2208 7.99883 16.9759 2.59671
159 1 -1.1104 9.56587 18.3928 3.93904
161 2 2.2208 8.01875 19.8697 4.91707
162 1 -1.1104 9.50137 15.7052 0.777297
164 1 -1.1104 9.47132 15.602 3.78977
328 2 2.2208 8.17403 5.76618 13.4869
229 2 2.2208 8.16412 17.0609 7.89901
136 2 2.2208 10.7511 19.8751 7.85072
170 1 -1.1104 1.31182 -1.36442 6.66139
30 2 2.2208 -0.125535 -5.40571 5.0342
8927 2 2.2208 13.4645 19.9206 5.1588
172 1 -1.1104 3.91975 -4.25317 6.74616
175 2 2.2208 5.38295 0.165518 10.9039
176 1 -1.1104 0.99884 -4.10626 12.2313
180 1 -1.1104 1.03205 -4.20951 9.33321
184 1 -1.1104 1.10118 -1.24675 12.2717
186 2 2.2208 5.27773 -2.70874 7.83049
188 1 -1.1104 1.33176 -1.38635 9.40157
190 1 -1.1104 3.78446 -4.27166 12.3222
192 2 2.2208 2.72819 0.160716 7.97998
193 1 -1.1104 3.96695 -3.86932 9.46678
195 2 2.2208 2.53777 -2.64389 10.7429
197 1 -1.1104 3.95108 -1.55067 12.3058
198 1 -1.1104 4.04004 -1.01671 9.3606
336 2 2.2208 5.14477 14.1622 13.7257
356 2 2.2208 7.94797 8.63499 -0.33035
331 2 2.2208 2.46702 16.9484 13.6194
207 1 -1.1104 12.3573 -1.45578 6.27048
135 2 2.2208 11.0228 14.2914 7.96522
315 1 -1.1104 9.59326 15.5121 12.3326
317 2 2.2208 -0.405188 -2.80759 13.6563
210 1 -1.1104 9.46463 -1.38996 6.36808
178 1 -1.1104 6.60908 -4.11316 12.3318
185 1 -1.1104 6.85816 -1.19388 12.1192
182 1 -1.1104 6.53223 -4.00724 9.41712
189 1 -1.1104 6.96137 -1.20083 9.32943
211 2 2.2208 11.1233 0.117461 10.7571
212 1 -1.1104 12.2752 -4.17005 11.9663
214 1 -1.1104 12.3271 -4.27042 9.27835
216 1 -1.1104 12.5409 -1.25284 12.1196
217 2 2.2208 11.0605 -2.81526 8.05473
219 1 -1.1104 12.4605 -1.57827 9.17178
220 1 -1.1104 9.66974 -4.16108 12.4385
222 2 2.2208 8.20537 0.0948282 8.00387
223 1 -1.1104 9.40082 -4.01547 9.65447
225 2 2.2208 8.07552 -2.6506 10.8767
227 1 -1.1104 9.67106 -1.11261 12.0456
228 1 -1.1104 9.8339 -1.14198 9.18465
314 1 -1.1104 9.5742 15.6416 9.37856
238 1 -1.1104 3.67984 7.00366 6.42997
9079 2 2.2208 -0.217606 8.5769 8.06555
236 1 -1.1104 0.696702 4.24472 6.4872
9151 2 2.2208 13.6107 17.1977 8.00528
177 1 -1.1104 0.943034 1.6101 11.8878
181 1 -1.1104 1.28073 1.22137 9.24902
187 2 2.2208 5.32757 3.01572 7.98779
191 1 -1.1104 3.99858 1.17217 12.2447
194 1 -1.1104 3.77132 1.76125 9.33126
196 2 2.2208 2.42586 2.98502 10.8097
240 2 2.2208 5.36173 5.81809 10.8638
246 1 -1.1104 1.03533 4.45475 12.1662
251 1 -1.1104 1.11927 4.30053 9.41657
255 1 -1.1104 4.11825 7.18689 12.1338
256 2 2.2208 2.47867 5.64657 8.04407
258 1 -1.1104 3.76493 7.39717 9.35121
260 1 -1.1104 3.92018 4.06385 12.071
262 1 -1.1104 4.02055 4.54195 9.21379
242 1 -1.1104 1.37656 7.32471 12.2994
244 1 -1.1104 1.03047 6.99299 9.51992
163 1 -1.1104 9.63962 15.7637 6.5279
179 1 -1.1104 7.14169 1.51819 12.1819
265 1 -1.1104 12.2079 7.14712 6.81423
169 1 -1.1104 6.80339 1.54673 6.59846
206 1 -1.1104 12.5688 1.53591 6.37261
209 1 -1.1104 9.55136 1.57522 6.5513
269 1 -1.1104 9.38584 4.20152 6.84803
267 1 -1.1104 9.56664 6.97988 6.62595
183 1 -1.1104 6.52312 1.68815 9.46961
253 1 -1.1104 6.80259 4.58092 9.39987
245 1 -1.1104 6.89989 7.51741 9.25078
243 1 -1.1104 6.80487 7.28695 12.1715
248 1 -1.1104 6.75751 4.51323 12.4086
213 1 -1.1104 12.5644 1.49096 12.2724
215 1 -1.1104 12.3625 1.45151 9.12079
218 2 2.2208 10.9693 2.80159 7.84816
221 1 -1.1104 9.97611 1.32877 12.0636
224 1 -1.1104 9.51167 1.62279 9.46453
226 2 2.2208 8.27094 3.04572 10.7396
268 1 -1.1104 9.63663 4.46747 9.34933
271 1 -1.1104 9.5724 4.44777 12.0925
273 1 -1.1104 9.74996 7.19334 9.38768
275 2 2.2208 8.06323 5.84317 7.91793
276 2 2.2208 11.1166 5.67733 10.847
279 1 -1.1104 12.3716 7.19366 9.51627
280 1 -1.1104 12.5142 4.38517 12.27
283 1 -1.1104 12.3677 4.30382 9.4994
296 1 -1.1104 6.54005 18.3242 12.2803
278 1 -1.1104 12.5206 7.13141 12.1607
285 1 -1.1104 9.82105 7.2707 12.2203
352 2 2.2208 5.25691 5.82607 -0.326381
111 1 -1.1104 6.74203 12.7968 6.56418
325 2 2.2208 2.63981 5.77265 13.4559
241 2 2.2208 5.22292 11.5503 10.5758
247 1 -1.1104 1.105 10.1315 12.0671
250 2 2.2208 5.19108 8.5147 7.94805
252 1 -1.1104 1.12045 10.0457 9.43981
257 2 2.2208 2.42303 11.5488 7.92668
259 2 2.2208 2.55796 8.54183 10.8548
261 1 -1.1104 3.94812 9.9798 12.3358
263 1 -1.1104 3.85641 10.2422 9.4588
287 1 -1.1104 4.04101 12.9961 12.0058
294 1 -1.1104 1.13209 12.6977 9.33973
299 1 -1.1104 1.29193 12.8777 12.1076
305 1 -1.1104 3.93168 12.9483 9.29382
9080 2 2.2208 -0.361031 5.59806 10.7539
201 2 2.2208 -0.0943336 0.0165543 10.7565
154 1 -1.1104 9.50781 12.7096 6.58935
254 1 -1.1104 6.60159 10.3959 9.22064
143 1 -1.1104 12.255 12.9349 6.41935
290 1 -1.1104 6.69881 12.9065 9.29397
297 1 -1.1104 6.8028 12.7426 12.1757
249 1 -1.1104 6.77154 9.9537 11.8693
101 1 -1.1104 9.62984 9.96242 6.60508
81 1 -1.1104 12.4663 12.8475 12.02
83 1 -1.1104 12.3907 12.7503 9.37453
311 1 -1.1104 9.64492 12.7789 9.2565
165 1 -1.1104 9.63874 12.9028 12.1869
264 1 -1.1104 9.74836 10.0571 9.40186
270 1 -1.1104 9.43863 10.2816 12.045
272 2 2.2208 8.25185 8.74455 10.6387
274 2 2.2208 8.21147 11.6066 7.93871
277 2 2.2208 11.0523 11.4026 10.6995
281 1 -1.1104 12.3045 10.1019 12.1228
282 2 2.2208 10.8723 8.69159 8.04548
284 1 -1.1104 12.5624 10.0127 9.32197
306 1 -1.1104 6.81427 15.5732 12.2163
338 2 2.2208 10.9692 14.1153 13.5394
316 2 2.2208 8.0611 19.7504 10.7626
323 2 2.2208 11.0197 -2.79589 13.5878
118 1 -1.1104 6.84881 15.5816 6.46632
9178 2 2.2208 -0.335348 2.88857 13.4264
308 1 -1.1104 3.89202 15.4889 12.0922
307 1 -1.1104 1.16254 15.7192 12.2747
309 2 2.2208 2.35271 19.7927 10.8788
304 1 -1.1104 3.85472 15.6993 9.38802
303 2 2.2208 2.36337 16.9964 8.15537
310 2 2.2208 2.54968 14.2051 10.7409
295 2 2.2208 5.30077 14.2992 7.88975
286 1 -1.1104 3.66882 18.2586 12.2702
291 1 -1.1104 1.09558 18.5513 9.34319
292 1 -1.1104 1.0302 15.7534 9.48932
293 2 2.2208 5.12906 20.0093 7.96992
298 1 -1.1104 0.817762 18.4468 12.2413
300 2 2.2208 5.29217 17.0121 10.7327
301 1 -1.1104 3.68873 18.4458 9.40655
322 2 2.2208 8.35084 0.191332 13.529
9072 2 2.2208 -0.30341 11.4339 10.6669
105 1 -1.1104 12.1731 15.5913 12.0626
313 2 2.2208 8.15147 14.153 10.912
27 2 2.2208 10.9201 17.1124 10.6151
312 1 -1.1104 9.51003 18.2193 9.34594
156 1 -1.1104 9.67218 18.4859 6.52827
82 1 -1.1104 12.1527 18.5078 12.0421
112 1 -1.1104 6.82411 18.4576 6.38694
199 1 -1.1104 9.41031 18.1829 12.1851
145 1 -1.1104 12.2725 18.3099 6.3374
149 1 -1.1104 12.5186 15.6624 6.68535
337 2 2.2208 10.9617 19.5912 13.6536
321 2 2.2208 5.38929 2.76839 13.5741
340 2 2.2208 13.5779 19.8118 -0.340738
320 2 2.2208 2.59373 -0.132967 13.6401
9189 2 2.2208 -0.184127 8.53039 13.6225
358 2 2.2208 5.45926 0.153363 16.6546
359 1 -1.1104 0.991171 -4.14625 17.9031
363 1 -1.1104 1.05738 -4.07879 15.2426
371 1 -1.1104 1.43498 -1.11212 17.6747
373 2 2.2208 5.1709 -2.75995 19.3226
375 1 -1.1104 1.03107 -1.25005 14.8874
379 1 -1.1104 3.78707 -4.29979 17.7004
381 2 2.2208 2.56922 0.303149 19.1868
382 1 -1.1104 4.18257 -4.20394 15.1907
386 2 2.2208 2.53529 -2.73547 16.3862
388 1 -1.1104 4.0228 -1.18833 17.959
389 1 -1.1104 4.05631 -1.40632 15.1188
395 2 2.2208 -0.299074 -2.72966 19.458
343 2 2.2208 2.43041 2.91184 27.8136
364 1 -1.1104 1.21249 -4.11391 20.7355
344 2 2.2208 -0.349257 0.0937114 27.514
319 2 2.2208 5.36895 -2.86001 13.7055
376 1 -1.1104 1.2251 -1.24189 20.4423
621 2 2.2208 8.17559 -5.47446 24.9948
361 1 -1.1104 6.76403 -4.12898 17.7768
372 1 -1.1104 6.86983 -1.34879 17.925
367 1 -1.1104 6.7394 -4.22284 15.0561
377 1 -1.1104 6.85958 -1.21801 15.2528
401 2 2.2208 10.903 0.146717 16.4151
402 1 -1.1104 12.4029 -4.32783 17.7247
404 1 -1.1104 12.4396 -4.24256 14.7886
408 1 -1.1104 12.3728 -1.30816 17.4871
409 2 2.2208 11.0999 -2.6223 19.115
411 1 -1.1104 12.369 -1.3829 14.9171
413 1 -1.1104 9.65466 -4.27523 18.0021
415 2 2.2208 8.21799 0.174957 19.1707
416 1 -1.1104 9.57705 -3.98581 15.2489
420 2 2.2208 8.22476 -2.78075 16.4484
422 1 -1.1104 9.53654 -1.24558 17.8054
423 1 -1.1104 9.70181 -1.11529 14.7327
9287 2 2.2208 13.5897 0.14272 24.8039
354 2 2.2208 5.25391 11.4547 27.6651
9427 2 2.2208 -0.103018 14.1336 19.1914
378 1 -1.1104 6.68817 -1.38298 20.7179
368 1 -1.1104 6.71601 -4.12545 20.7674
405 1 -1.1104 12.3803 -4.01538 20.7436
417 1 -1.1104 9.63224 -4.08196 20.8328
9284 2 2.2208 -0.274503 3.11781 19.3077
360 1 -1.1104 1.03773 1.71576 17.9708
365 1 -1.1104 1.06554 1.35227 14.8628
374 2 2.2208 5.48165 2.90219 19.3714
380 1 -1.1104 3.85981 1.61169 17.7343
384 1 -1.1104 4.0525 1.38957 14.9085
387 2 2.2208 2.48934 3.23191 16.6022
434 2 2.2208 5.39491 5.88272 16.4358
436 1 -1.1104 1.19792 7.18764 17.8435
438 1 -1.1104 1.27044 7.14174 14.9632
442 1 -1.1104 1.19921 4.56434 17.9956
447 1 -1.1104 1.02816 4.23632 15.0065
456 2 2.2208 2.60628 5.98104 19.3198
458 1 -1.1104 4.12897 7.08922 14.705
461 1 -1.1104 4.09786 4.47026 17.9361
463 1 -1.1104 3.99249 4.31907 15.0116
455 1 -1.1104 3.75988 7.20135 17.8137
439 1 -1.1104 1.02615 7.28258 20.7566
362 1 -1.1104 6.55362 1.65933 17.8721
496 1 -1.1104 12.2305 15.6401 26.4295
366 1 -1.1104 1.25367 1.52162 20.6325
459 1 -1.1104 3.96436 7.49666 20.7163
9176 2 2.2208 -0.391918 11.2847 27.7204
334 2 2.2208 5.2341 16.8954 27.5389
444 1 -1.1104 6.80431 4.30442 18.0803
440 1 -1.1104 6.80949 7.40554 14.8294
451 1 -1.1104 6.80193 4.39728 15.1688
369 1 -1.1104 6.89718 1.50002 15.0595
403 1 -1.1104 12.4341 1.4605 18.1489
406 1 -1.1104 12.4737 1.55015 15.2377
410 2 2.2208 10.9749 2.93001 19.1142
414 1 -1.1104 9.48109 1.47048 17.8802
418 1 -1.1104 9.79197 1.68073 15.0162
421 2 2.2208 8.04137 2.91974 16.5058
470 2 2.2208 10.8753 5.7032 16.3692
472 1 -1.1104 12.3145 6.89508 17.8315
473 1 -1.1104 12.2273 7.21973 14.9203
475 1 -1.1104 12.4222 4.07331 17.8838
478 1 -1.1104 12.6142 4.51841 15.1117
482 1 -1.1104 9.49587 7.19416 17.8819
483 2 2.2208 8.3113 5.95796 19.2645
488 1 -1.1104 9.41357 4.41721 17.7137
490 1 -1.1104 9.52827 4.34993 14.8146
437 1 -1.1104 6.61918 7.18706 17.7842
485 1 -1.1104 9.37189 7.17505 15.1363
9180 2 2.2208 13.6753 5.9949 13.6635
491 1 -1.1104 9.72814 4.49285 20.5269
486 1 -1.1104 9.42681 7.42086 20.6874
335 2 2.2208 2.32169 19.6081 27.406
435 2 2.2208 5.21545 11.1917 16.3372
443 1 -1.1104 0.846788 9.82258 17.6907
446 2 2.2208 5.49034 8.89913 19.1961
449 1 -1.1104 1.2608 9.98327 14.8854
457 2 2.2208 2.60523 11.5604 19.0709
460 2 2.2208 2.47432 8.65479 16.3187
462 1 -1.1104 3.94246 9.96054 17.8073
465 1 -1.1104 3.77472 9.9566 15.0308
498 1 -1.1104 1.16283 12.7068 17.7391
502 1 -1.1104 0.955521 12.7765 14.8711
518 1 -1.1104 3.90107 12.7302 17.518
521 1 -1.1104 3.83076 12.625 14.8461
589 2 2.2208 -0.298878 -5.39338 22.3374
522 1 -1.1104 3.75328 13.0565 20.3529
466 1 -1.1104 4.22417 10.4229 20.3861
450 1 -1.1104 1.45141 10.0733 20.5077
503 1 -1.1104 1.15314 12.7847 20.7248
399 2 2.2208 8.19128 16.752 25.0089
9428 2 2.2208 -0.174956 16.9901 16.269
500 1 -1.1104 6.71404 12.7838 17.9522
506 1 -1.1104 6.65422 12.5716 15.0375
445 1 -1.1104 7.00352 10.0584 17.6252
453 1 -1.1104 6.57158 10.0933 14.8198
471 2 2.2208 10.937 11.3428 16.6181
476 1 -1.1104 12.2901 9.72332 17.7597
477 2 2.2208 11.0883 8.44223 19.2755
480 1 -1.1104 12.0685 9.97495 14.9574
484 2 2.2208 8.25155 11.2616 19.2519
487 2 2.2208 8.14443 8.6831 16.3036
489 1 -1.1104 9.66407 9.90611 17.8329
492 1 -1.1104 9.52918 9.83131 14.9087
534 1 -1.1104 12.3118 12.5426 17.8615
536 1 -1.1104 12.4568 12.8079 15.2527
545 1 -1.1104 9.54305 12.7605 17.8813
548 1 -1.1104 9.54615 12.597 14.7869
428 2 2.2208 8.13951 -5.43811 13.7163
9286 2 2.2208 -0.226777 8.37684 24.9396
9241 2 2.2208 -0.390261 17.0454 22.1402
556 1 -1.1104 9.63128 15.6898 20.7908
512 2 2.2208 5.46399 14.2336 19.1702
525 2 2.2208 2.48925 14.2164 16.301
497 2 2.2208 5.36405 16.9555 16.4161
499 1 -1.1104 1.06645 18.4208 17.8442
504 1 -1.1104 1.26338 18.2891 14.9351
510 1 -1.1104 1.19067 15.5678 17.8445
513 2 2.2208 5.30959 19.7845 19.4136
514 1 -1.1104 1.03298 15.5867 15.0285
519 1 -1.1104 3.84021 18.3947 17.9572
520 2 2.2208 2.41788 17.1283 19.2431
523 1 -1.1104 3.98093 18.8052 15.1196
526 2 2.2208 2.40678 19.9553 16.5372
527 1 -1.1104 4.0213 15.6999 18.0195
528 1 -1.1104 3.79598 15.611 14.9272
511 1 -1.1104 6.78828 15.8033 17.8389
342 2 2.2208 2.54721 -2.85543 27.8157
524 1 -1.1104 3.82758 18.4627 20.7929
529 1 -1.1104 3.99442 15.5189 20.8227
9356 2 2.2208 -0.190678 8.52631 19.1496
517 1 -1.1104 6.91581 15.5056 20.5097
9535 2 2.2208 -0.33929 5.6825 22.0474
508 1 -1.1104 6.68842 18.2159 14.9637
501 1 -1.1104 6.59229 18.3298 17.7468
516 1 -1.1104 6.47699 15.4632 15.083
552 2 2.2208 8.00342 14.1562 16.4449
541 2 2.2208 11.1606 14.1501 19.2592
533 2 2.2208 10.8858 16.9971 16.5289
535 1 -1.1104 12.2349 18.6074 17.8415
538 1 -1.1104 12.2801 18.278 15.0611
540 1 -1.1104 12.434 15.6405 17.8309
542 2 2.2208 10.8349 19.9661 19.1655
543 1 -1.1104 12.4882 15.416 14.8685
546 1 -1.1104 9.39083 18.3933 17.7405
547 2 2.2208 8.12823 16.9728 19.1579
550 1 -1.1104 9.5968 18.3279 15.0761
553 2 2.2208 7.98426 19.7499 16.471
554 1 -1.1104 9.60067 15.4783 17.9663
555 1 -1.1104 9.56878 15.4285 15.1451
9285 2 2.2208 -0.360035 11.2132 22.0402
551 1 -1.1104 9.53975 18.4454 20.4145
619 2 2.2208 11.041 -5.563 27.7202
394 2 2.2208 -0.214898 0.00845462 16.4791
390 1 -1.1104 3.95316 -1.31755 20.7922
679 1 -1.1104 12.4841 15.6769 23.4594
383 1 -1.1104 3.87953 -4.05073 20.6744
595 2 2.2208 -0.269093 0.305942 21.8669
332 2 2.2208 5.30653 19.8616 13.7306
561 2 2.2208 5.27085 0.0656666 22.0409
562 1 -1.1104 0.951477 -4.15568 23.712
566 1 -1.1104 1.04671 -3.96336 26.377
570 1 -1.1104 0.970443 -1.42089 23.302
572 2 2.2208 5.18101 -2.7803 24.992
574 1 -1.1104 0.869635 -1.12374 26.132
576 1 -1.1104 3.78271 -4.09469 23.5447
578 2 2.2208 2.38939 0.239635 24.8313
579 1 -1.1104 3.77417 -4.13498 26.6619
581 2 2.2208 2.52111 -2.70241 22.0193
583 1 -1.1104 3.95317 -1.19789 23.5809
584 1 -1.1104 3.69003 -1.58229 26.2095
652 1 -1.1104 6.74853 15.3791 26.2798
333 2 2.2208 2.46149 14.1443 27.6524
468 1 -1.1104 9.52707 15.7408 23.4365
424 1 -1.1104 9.49602 -1.57587 20.5179
575 1 -1.1104 6.7335 -1.42942 26.278
568 1 -1.1104 6.58021 -4.11921 26.4313
412 1 -1.1104 12.154 -1.14466 20.35
571 1 -1.1104 6.79115 -1.35787 23.6027
564 1 -1.1104 6.58516 -4.16757 23.4409
597 2 2.2208 11.0442 0.127258 21.9907
598 1 -1.1104 12.4343 -4.27044 23.5173
600 1 -1.1104 12.3371 -4.12444 26.3512
602 1 -1.1104 12.29 -1.17983 23.3773
603 2 2.2208 10.852 -2.69377 25.0029
605 1 -1.1104 12.1357 -1.32261 26.2873
606 1 -1.1104 9.332 -4.00427 23.4519
608 2 2.2208 8.17167 0.157423 25.05
609 1 -1.1104 9.34839 -4.16489 26.4706
611 2 2.2208 8.15019 -2.56699 22.0745
613 1 -1.1104 9.65344 -1.36516 23.3348
614 1 -1.1104 9.48105 -1.24681 26.2012
432 1 -1.1104 9.48145 18.4427 26.3509
9322 2 2.2208 -0.238869 11.4367 16.2829
530 2 2.2208 10.9913 19.9343 24.9456
464 1 -1.1104 3.83909 4.49034 20.6374
678 1 -1.1104 12.1006 18.4972 26.4323
448 1 -1.1104 1.09903 4.38996 20.8364
385 1 -1.1104 3.96392 1.44386 20.5195
563 1 -1.1104 0.980396 1.47578 23.3083
567 1 -1.1104 1.09785 1.72257 26.073
573 2 2.2208 5.33413 2.98763 24.875
577 1 -1.1104 3.85903 1.55431 23.5378
580 1 -1.1104 3.77468 1.39208 26.3542
582 2 2.2208 2.52781 2.97011 22.1687
626 2 2.2208 5.44383 5.90672 22.0434
632 1 -1.1104 1.34096 4.22415 23.7174
637 1 -1.1104 1.16515 4.43262 26.4393
642 2 2.2208 2.45138 5.66681 24.9133
644 1 -1.1104 3.91967 6.99147 26.2807
646 1 -1.1104 4.09436 4.40314 23.3744
648 1 -1.1104 3.82651 4.0999 26.3655
628 1 -1.1104 1.29078 7.04704 23.5313
641 1 -1.1104 3.90228 7.03478 23.537
630 1 -1.1104 0.891811 7.2837 26.4502
345 2 2.2208 8.11187 14.1542 27.7202
370 1 -1.1104 6.6767 1.66708 20.9502
9357 2 2.2208 -0.361039 5.70962 16.2231
474 1 -1.1104 12.4467 7.15972 20.816
565 1 -1.1104 6.80131 1.62283 23.5769
629 1 -1.1104 6.71454 7.27117 23.5689
452 1 -1.1104 6.80276 4.65435 20.8552
407 1 -1.1104 12.6326 1.30735 20.7661
419 1 -1.1104 9.43371 1.51321 20.5609
639 1 -1.1104 6.7404 4.53674 26.6004
634 1 -1.1104 6.85748 4.5671 23.6029
479 1 -1.1104 12.3254 4.12438 20.775
569 1 -1.1104 6.51898 1.60748 26.3962
631 1 -1.1104 6.74185 7.32856 26.4541
599 1 -1.1104 12.1941 1.63866 23.607
601 1 -1.1104 12.1869 1.55151 26.2776
604 2 2.2208 10.904 3.00916 24.9892
607 1 -1.1104 9.49451 1.5345 23.4475
610 1 -1.1104 9.30742 1.6018 26.4391
612 2 2.2208 8.16943 2.98352 22.0612
658 1 -1.1104 9.56799 4.47732 26.4508
660 1 -1.1104 9.49044 4.30237 23.4815
662 1 -1.1104 9.40914 7.5026 26.4921
664 2 2.2208 8.06239 5.72092 25.05
665 2 2.2208 10.7947 5.67981 22.3321
667 1 -1.1104 12.3501 7.36511 23.5707
668 1 -1.1104 12.5627 7.20296 26.3056
669 1 -1.1104 12.5099 4.57769 23.4101
672 1 -1.1104 12.4143 4.4749 26.415
674 1 -1.1104 9.57021 7.20745 23.5546
441 1 -1.1104 6.61194 7.25853 20.5847
544 1 -1.1104 12.6979 15.4737 20.7591
347 2 2.2208 8.03962 -2.81721 27.8237
353 2 2.2208 2.46378 8.52895 27.654
627 2 2.2208 5.29748 11.5749 22.0813
633 1 -1.1104 0.985645 9.70014 23.3823
636 2 2.2208 5.41043 8.59563 24.9328
638 1 -1.1104 0.992595 10.008 26.3433
643 2 2.2208 2.40589 11.3299 24.7562
645 2 2.2208 2.51022 8.59439 22.1274
647 1 -1.1104 3.89174 10.1834 23.1783
649 1 -1.1104 3.68476 9.77124 26.0359
560 1 -1.1104 3.79184 12.6276 26.2334
596 1 -1.1104 0.903582 12.4713 23.5882
625 1 -1.1104 0.870697 12.7035 26.414
675 1 -1.1104 3.60853 12.7939 23.3971
509 1 -1.1104 6.68284 18.4642 20.6019
549 1 -1.1104 9.52128 12.8526 20.7261
676 1 -1.1104 6.59042 12.7948 26.3918
454 1 -1.1104 6.98766 10.0111 20.6707
481 1 -1.1104 12.7193 9.85324 20.4914
507 1 -1.1104 6.63383 12.7354 20.7867
537 1 -1.1104 12.135 12.8403 20.7012
493 1 -1.1104 9.84035 10.0972 20.8589
635 1 -1.1104 6.73953 9.94235 23.5216
640 1 -1.1104 6.80447 10.0402 26.3012
616 1 -1.1104 6.39867 12.7104 23.7109
657 1 -1.1104 9.66054 10.1397 26.3028
659 1 -1.1104 9.56097 10.2154 23.6089
661 2 2.2208 8.17963 8.69752 22.2506
663 2 2.2208 8.09553 11.3871 24.9217
666 2 2.2208 10.9622 11.5334 22.2724
670 1 -1.1104 12.6458 10.0551 23.4469
671 2 2.2208 11.0315 8.63583 25.0041
673 1 -1.1104 12.5884 10.0468 26.3266
656 1 -1.1104 12.659 12.8404 26.2233
431 1 -1.1104 9.60191 12.8984 26.3431
494 1 -1.1104 9.54776 12.8123 23.4433
654 1 -1.1104 12.3378 12.926 23.4356
539 1 -1.1104 12.479 18.4803 20.5496
495 2 2.2208 -0.486338 19.6498 24.8085
469 1 -1.1104 9.68622 15.4327 26.2982
505 1 -1.1104 0.986832 18.5457 20.508
400 1 -1.1104 6.63594 18.1748 26.0093
341 2 2.2208 5.35791 0.218962 27.6197
515 1 -1.1104 1.13249 15.7457 20.8244
591 2 2.2208 5.24937 -5.45661 22.1488
617 2 2.2208 5.17555 14.2031 24.9491
531 2 2.2208 2.44934 14.2754 22.1098
677 1 -1.1104 3.84643 18.2239 23.6561
532 2 2.2208 2.30893 19.7771 22.273
557 1 -1.1104 4.00857 15.5902 23.3863
558 1 -1.1104 1.07407 15.5159 23.6469
585 1 -1.1104 3.88757 15.584 26.1446
586 2 2.2208 2.45626 16.9882 24.7907
587 1 -1.1104 3.83667 18.4009 26.1923
593 2 2.2208 5.42624 17.0249 21.9905
615 1 -1.1104 0.914596 18.2882 23.6409
622 2 2.2208 5.2507 19.6554 24.7651
650 1 -1.1104 0.960032 15.4502 26.3133
651 1 -1.1104 0.957281 18.2378 26.4566
467 2 2.2208 8.13626 19.7786 21.873
680 2 2.2208 11.0534 14.0901 24.9296
559 1 -1.1104 6.75732 15.4537 23.5027
398 1 -1.1104 9.77605 18.3798 23.4635
433 2 2.2208 8.19245 14.2073 22.0109
624 1 -1.1104 6.85019 18.3661 23.3751
655 1 -1.1104 12.5187 18.3037 23.4106
653 2 2.2208 11.0281 17.0444 21.9817
357 2 2.2208 10.9951 11.5376 27.6613
350 2 2.2208 10.8726 17.1144 27.8026
355 2 2.2208 11.0469 6.05828 27.7433
324 2 2.2208 11.2686 2.91487 13.6793
9173 2 2.2208 -0.400309 5.91671 27.7482
351 2 2.2208 8.05756 19.677 27.5803
9242 2 2.2208 -0.347951 13.9907 24.9739
9426 2 2.2208 -0.326929 19.7997 19.1706
9168 2 2.2208 -0.392077 16.8675 27.6196
9177 2 2.2208 13.6526 3.12655 27.7531
346 2 2.2208 10.8291 -0.000901705 27.6818
339 2 2.2208 8.14885 16.8255 13.7437
9197 2 2.2208 -0.360691 19.9222 13.7714
681 2 2.2208 5.05166 22.7635 5.10952
683 1 -1.1104 0.948254 23.9658 0.909721
684 1 -1.1104 0.937807 23.9584 3.73349
685 1 -1.1104 1.04047 21.2525 0.646522
687 2 2.2208 5.14005 25.3522 2.38808
688 1 -1.1104 1.04826 21.3434 3.70108
690 1 -1.1104 3.79276 24.0683 0.797277
691 2 2.2208 2.30378 22.6402 2.27809
693 1 -1.1104 3.53939 24.088 3.69444
694 2 2.2208 2.25513 25.3939 5.20145
695 1 -1.1104 3.87245 20.9704 0.543136
697 1 -1.1104 3.85764 21.3453 3.51788
698 1 -1.1104 3.68242 26.8463 4.0108
696 1 -1.1104 3.94661 26.9258 1.05571
822 1 -1.1104 0.849304 24.0473 6.72512
703 1 -1.1104 6.42695 23.8895 3.84254
686 1 -1.1104 1.26556 26.8947 0.952408
689 1 -1.1104 1.0529 26.8589 3.84656
1035 2 2.2208 5.58449 33.9976 -0.341209
702 1 -1.1104 6.34986 23.9913 1.03719
704 1 -1.1104 6.60312 21.2158 0.913884
825 1 -1.1104 1.12952 26.9074 6.56624
1040 2 2.2208 10.876 33.8676 -0.357276
1028 2 2.2208 -0.00285372 45.0414 -0.266956
707 1 -1.1104 6.63839 26.8986 3.99977
705 1 -1.1104 6.93438 26.7157 1.08945
706 1 -1.1104 6.56086 20.9887 3.63967
708 2 2.2208 10.6334 22.704 4.97377
710 1 -1.1104 12.1911 23.919 1.06264
711 1 -1.1104 12.1873 24.1017 3.73471
712 1 -1.1104 12.3143 21.1838 0.829425
714 2 2.2208 10.9379 25.6033 2.43183
715 1 -1.1104 12.2963 21.3382 3.64833
717 1 -1.1104 9.41165 24.2262 1.0769
718 2 2.2208 7.85167 22.5703 2.23626
720 1 -1.1104 9.10136 24.1241 3.75673
721 2 2.2208 8.0178 25.4296 5.33946
722 1 -1.1104 9.22489 21.3574 0.698265
724 1 -1.1104 9.37539 21.3529 3.48587
1039 2 2.2208 7.97371 31.0901 -0.339334
1006 2 2.2208 2.4982 34.0251 13.5859
713 1 -1.1104 12.1965 26.9882 0.800908
725 1 -1.1104 9.63197 27.0749 3.77339
716 1 -1.1104 12.3439 27.077 3.70826
723 1 -1.1104 9.54254 27.1222 0.930882
859 1 -1.1104 9.46476 21.1528 6.22051
858 1 -1.1104 9.36679 24.0179 6.50759
9861 2 2.2208 -0.239344 28.2191 5.26266
972 2 2.2208 -0.192723 39.4031 10.8671
682 2 2.2208 5.12632 28.3303 5.18463
692 2 2.2208 2.48685 28.3154 2.3812
730 1 -1.1104 1.05486 29.6787 1.01604
733 1 -1.1104 1.12816 29.7914 3.80242
736 1 -1.1104 1.13658 32.5724 1.09611
737 2 2.2208 5.40786 30.9937 2.38026
739 1 -1.1104 1.05917 32.7766 3.90539
741 1 -1.1104 3.80756 29.7525 0.854162
744 1 -1.1104 3.9972 29.8203 3.89978
746 2 2.2208 2.36153 31.0822 5.38202
748 1 -1.1104 4.18622 32.5365 0.689751
749 1 -1.1104 3.81203 32.4683 3.92129
887 1 -1.1104 3.97841 32.5955 6.77348
885 1 -1.1104 3.69979 29.6934 6.46928
1001 2 2.2208 8.04037 28.1689 13.6661
754 1 -1.1104 6.6143 29.5933 3.96111
9761 2 2.2208 13.7228 33.8393 8.21585
830 1 -1.1104 3.90682 27.0258 6.73014
881 1 -1.1104 6.45816 29.7157 6.59805
755 1 -1.1104 6.7508 32.5055 1.14187
753 1 -1.1104 6.74968 29.5814 1.09289
740 1 -1.1104 6.79229 32.7007 3.97732
709 2 2.2208 10.8333 28.3812 5.13916
719 2 2.2208 8.08946 28.1499 2.51942
757 1 -1.1104 12.3878 29.8986 0.927335
759 1 -1.1104 12.2389 29.7345 3.78267
761 1 -1.1104 12.2975 32.7584 1.01238
762 2 2.2208 10.9627 31.192 2.41898
764 1 -1.1104 12.4662 32.3902 3.95781
765 1 -1.1104 9.60289 29.8714 0.980004
768 1 -1.1104 9.25605 29.7484 3.93378
770 2 2.2208 8.14607 31.1361 5.1548
772 1 -1.1104 9.34472 32.6235 1.04243
773 1 -1.1104 9.65061 32.4638 3.84552
9805 2 2.2208 -0.268493 34.0005 10.9361
1036 2 2.2208 -0.368277 33.9632 -0.327223
729 2 2.2208 5.3558 33.8997 5.37304
731 1 -1.1104 1.00142 35.4986 1.10675
734 1 -1.1104 0.922548 35.5948 3.80895
738 2 2.2208 5.29222 36.658 2.46499
742 1 -1.1104 3.92316 35.307 0.988399
743 2 2.2208 2.45358 33.9221 2.5775
745 1 -1.1104 4.10961 35.1865 3.83599
747 2 2.2208 2.55697 36.7945 5.39354
775 2 2.2208 5.43465 39.5677 5.29133
781 1 -1.1104 1.14475 38.1624 1.13528
786 1 -1.1104 0.982755 38.1884 3.91176
791 2 2.2208 2.53246 39.6278 2.6393
795 1 -1.1104 3.92779 38.2473 1.10795
797 1 -1.1104 3.72359 37.9925 3.80685
9706 2 2.2208 13.5175 28.1357 8.01284
880 1 -1.1104 1.092 35.4686 6.67587
1557 1 -1.1104 1.02875 46.6135 6.43927
9865 2 2.2208 -0.384755 36.6787 8.03117
1589 1 -1.1104 12.6011 46.7785 6.78419