ITEM: TIMESTEP
40000
ITEM: NUMBER OF ATOMS
17700
ITEM: BOX BOUNDS pp pp pp
-4.5041980371120038e-01 2.7790419803711043e+01
-5.2953759674415615e+00 3.3337537596743965e+02
-4.4366309380453361e-01 2.7783663093804726e+01
ITEM: ATOMS id type q x y z
1 2 2.2208 4.90389 0.175274 5.28297
2 1 -1.1104 0.607748 -4.00443 1.03952
6 1 -1.1104 0.814048 -4.21659 3.89024
10 1 -1.1104 0.567127 -1.0744 0.856502
12 2 2.2208 4.91158 -2.49804 2.29206
14 1 -1.1104 0.678079 -1.24177 3.69145
16 1 -1.1104 3.48619 -3.95018 1.16799
18 2 2.2208 2.0375 0.268542 2.28369
19 1 -1.1104 3.63017 -3.83329 3.87985
21 2 2.2208 2.13089 -2.60827 5.14974
23 1 -1.1104 3.51907 -1.24063 1.08893
24 1 -1.1104 3.44676 -0.779284 3.74573
15 1 -1.1104 6.17924 -1.21616 3.62625
8 1 -1.1104 6.4145 -3.82048 3.77684
11 1 -1.1104 6.29553 -1.04271 0.64119
4 1 -1.1104 6.2859 -3.97732 1.05775
172 1 -1.1104 3.37411 -4.1853 6.25619
339 2 2.2208 7.68101 17.0677 13.4872
31 2 2.2208 10.5849 0.407978 5.36061
32 1 -1.1104 11.6191 -4.13451 0.899181
34 1 -1.1104 12.0205 -3.94472 3.80353
36 1 -1.1104 11.991 -1.00497 0.995713
37 2 2.2208 10.5287 -2.49076 2.28934
39 1 -1.1104 11.9212 -1.02095 3.85426
40 1 -1.1104 8.90212 -3.97468 0.584236
42 2 2.2208 7.71698 0.140164 2.08841
43 1 -1.1104 9.4549 -4.16881 3.30824
45 2 2.2208 7.59674 -2.43227 5.10227
47 1 -1.1104 9.30437 -1.25279 0.819419
48 1 -1.1104 9.06647 -1.22862 3.62887
207 1 -1.1104 12.0137 -0.976153 6.53109
205 1 -1.1104 12.1569 -3.65325 6.79326
50 2 2.2208 13.3603 -2.45432 5.37599
210 1 -1.1104 9.25995 -1.37465 6.60292
49 2 2.2208 13.2173 0.288851 2.33823
325 2 2.2208 2.02977 5.86018 13.4694
331 2 2.2208 1.9433 17.1454 13.6358
208 1 -1.1104 9.20486 -3.99843 6.25319
135 2 2.2208 10.5229 14.3255 8.0572
354 2 2.2208 4.78633 11.4756 -0.446929
3 1 -1.1104 0.624327 1.38278 0.883196
7 1 -1.1104 0.669717 1.71113 3.5546
13 2 2.2208 4.98972 3.22245 2.3051
17 1 -1.1104 3.36415 1.76862 0.727963
20 1 -1.1104 3.64571 1.74877 3.6242
22 2 2.2208 1.96372 2.9805 5.08939
54 2 2.2208 4.94558 5.66743 5.04691
56 1 -1.1104 0.676428 7.38932 1.20049
58 1 -1.1104 0.861966 7.20169 3.53926
60 1 -1.1104 0.671797 4.43182 0.769866
67 1 -1.1104 0.548535 4.3776 3.8394
72 2 2.2208 2.07231 5.65982 2.4559
76 1 -1.1104 3.47316 4.48213 0.858095
79 1 -1.1104 3.52596 4.43742 3.91461
71 1 -1.1104 3.45777 7.23481 0.822065
74 1 -1.1104 3.42198 7.25039 3.76425
5 1 -1.1104 6.2935 1.70574 0.938804
69 1 -1.1104 6.25175 4.69881 3.74426
9 1 -1.1104 6.50987 1.80736 3.61918
234 1 -1.1104 0.514328 7.10026 6.64072
59 1 -1.1104 6.25298 7.32026 3.69208
57 1 -1.1104 6.22471 7.24073 0.619971
63 1 -1.1104 6.20223 4.54146 0.825692
238 1 -1.1104 3.35497 7.28992 6.62448
236 1 -1.1104 0.65491 4.37723 6.66713
235 1 -1.1104 6.12527 7.13739 6.49
169 1 -1.1104 6.2176 1.50954 6.61868
33 1 -1.1104 12.0244 1.89016 1.12443
35 1 -1.1104 11.9578 1.9064 3.7987
38 2 2.2208 10.3944 3.02346 2.24301
41 1 -1.1104 8.9366 1.66954 0.779637
44 1 -1.1104 9.33654 1.50137 3.77991
46 2 2.2208 7.88048 3.07466 5.03179
84 2 2.2208 10.5415 5.90415 4.92533
86 1 -1.1104 11.9541 7.4173 0.921192
87 1 -1.1104 11.7511 7.31359 3.55686
88 1 -1.1104 11.8128 4.6444 0.85794
92 1 -1.1104 11.7955 4.52685 3.64559
95 2 2.2208 7.61815 6.06197 2.15898
97 1 -1.1104 8.95818 7.3264 3.48764
99 1 -1.1104 8.93909 4.4112 0.91886
102 1 -1.1104 8.94332 4.38859 3.62545
94 1 -1.1104 8.97706 7.32275 0.773596
265 1 -1.1104 11.7847 7.25839 6.3467
9156 2 2.2208 13.2349 5.97549 2.13007
206 1 -1.1104 11.8608 1.84242 6.73618
8850 2 2.2208 13.2081 3.1988 4.90928
330 2 2.2208 7.64802 11.4722 13.5246
55 2 2.2208 4.82833 11.4975 5.11669
61 1 -1.1104 0.63804 10.2727 0.926541
66 2 2.2208 4.82969 8.59288 2.42848
68 1 -1.1104 0.742926 9.85472 3.76299
73 2 2.2208 1.99074 11.4001 2.24094
75 2 2.2208 2.0736 8.65676 5.12887
77 1 -1.1104 3.25495 10.0216 1.04464
80 1 -1.1104 3.55073 10.137 3.71326
107 1 -1.1104 0.482095 13.1594 0.772478
113 1 -1.1104 0.527984 12.6394 3.78127
123 1 -1.1104 3.2595 12.9082 0.774643
128 1 -1.1104 3.35691 12.7957 3.57418
70 1 -1.1104 6.2594 10.2509 3.70904
115 1 -1.1104 6.29424 13.215 3.81486
110 1 -1.1104 6.19011 12.8937 0.977915
64 1 -1.1104 6.18874 9.91998 0.914041
104 1 -1.1104 11.7745 18.4636 9.36124
108 1 -1.1104 0.584767 13.0436 6.53529
124 1 -1.1104 3.35286 12.698 6.50679
78 1 -1.1104 3.48556 9.99325 6.7015
9155 2 2.2208 13.2268 11.7146 2.32305
85 2 2.2208 10.4786 11.4525 5.11118
89 1 -1.1104 11.8797 10.1587 0.804236
91 2 2.2208 10.2801 8.71335 2.30983
93 1 -1.1104 11.9711 10.1413 3.51794
96 2 2.2208 7.60258 11.621 2.47613
98 2 2.2208 7.54601 8.63744 5.07275
100 1 -1.1104 8.92054 10.1434 0.883204
103 1 -1.1104 8.9472 10.1095 3.8244
142 1 -1.1104 11.8852 12.9086 1.06347
146 1 -1.1104 11.873 12.8744 3.8804
153 1 -1.1104 9.07316 12.9121 0.832682
158 1 -1.1104 9.04306 13.0149 3.64059
90 1 -1.1104 11.848 10.2048 6.4975
154 1 -1.1104 9.21616 12.8074 6.57495
143 1 -1.1104 12.0113 13.0916 6.57053
101 1 -1.1104 9.06522 9.89137 6.57488
8879 2 2.2208 13.4224 8.7266 4.96461
9171 2 2.2208 13.262 8.7803 -0.399562
320 2 2.2208 2.22451 0.0535669 13.6078
130 2 2.2208 1.99472 14.2103 5.14996
119 2 2.2208 4.84181 14.4034 2.22811
106 2 2.2208 4.7059 17.2968 5.15377
109 1 -1.1104 0.59108 18.4444 0.881789
114 1 -1.1104 0.389567 18.7493 3.77678
116 1 -1.1104 0.633354 15.8045 0.54583
120 2 2.2208 4.66127 19.9922 2.36684
121 1 -1.1104 0.785044 15.7652 3.68408
125 1 -1.1104 3.16767 18.5781 0.966269
127 2 2.2208 1.92313 17.1003 2.36445
129 1 -1.1104 3.07515 18.3908 3.75275
131 2 2.2208 2.03164 19.9908 5.09172
132 1 -1.1104 3.41881 15.8362 0.656086
134 1 -1.1104 3.46297 15.3805 3.76615
139 1 -1.1104 6.04815 18.7203 3.92584
117 1 -1.1104 0.876595 15.9631 6.3692
138 1 -1.1104 6.08503 18.6343 0.950388
122 1 -1.1104 6.1344 16.0406 3.7528
133 1 -1.1104 3.49131 15.7565 6.68465
140 1 -1.1104 6.16496 15.6796 0.846571
112 1 -1.1104 6.21547 18.6533 6.49557
118 1 -1.1104 6.19986 15.6491 6.57349
126 1 -1.1104 3.55202 18.5731 6.52865
9177 2 2.2208 13.2989 3.08862 -0.391231
336 2 2.2208 4.8011 14.2244 13.4736
8948 2 2.2208 13.311 14.422 5.14069
8927 2 2.2208 13.2208 19.9771 5.21199
9160 2 2.2208 13.3378 17.1001 2.26321
160 2 2.2208 7.67671 14.3688 5.21506
150 2 2.2208 10.475 14.389 2.49762
141 2 2.2208 10.2951 17.108 5.09051
144 1 -1.1104 11.7706 18.6323 0.638609
147 1 -1.1104 11.7899 18.3241 3.3724
148 1 -1.1104 11.8559 15.6942 0.994822
151 2 2.2208 10.3109 19.8882 2.46372
152 1 -1.1104 11.9425 15.6847 3.79261
155 1 -1.1104 9.0176 18.5482 1.15911
157 2 2.2208 7.56362 17.2856 2.23934
159 1 -1.1104 8.91531 18.8147 3.83327
161 2 2.2208 7.44776 20.0828 5.19641
162 1 -1.1104 8.93743 15.866 0.856294
164 1 -1.1104 8.85963 15.9586 3.73502
163 1 -1.1104 8.868 15.5333 6.66879
314 1 -1.1104 9.25191 16.0049 9.05545
82 1 -1.1104 11.8472 18.6047 12.1736
145 1 -1.1104 11.9882 18.6548 6.36605
136 2 2.2208 10.4173 20.0925 7.96207
166 1 -1.1104 0.7126 -3.97735 6.62139
171 1 -1.1104 6.39128 -1.05973 6.5914
9112 2 2.2208 13.2521 20.0903 10.865
170 1 -1.1104 0.701937 -1.16177 6.62928
174 1 -1.1104 3.47475 -1.38488 6.67238
175 2 2.2208 4.91091 0.373463 10.6963
176 1 -1.1104 0.731012 -4.10069 12.0644
180 1 -1.1104 0.916255 -3.91928 9.20178
184 1 -1.1104 0.658687 -1.10441 12.2184
186 2 2.2208 4.95144 -2.68641 7.82335
188 1 -1.1104 0.694933 -1.29944 9.53877
190 1 -1.1104 3.64163 -3.90408 12.0917
192 2 2.2208 1.85994 0.113622 8.10197
193 1 -1.1104 3.69536 -4.12264 9.20903
195 2 2.2208 2.35875 -2.62604 10.8169
197 1 -1.1104 3.61512 -1.1845 12.1857
198 1 -1.1104 3.45255 -1.1108 9.41742
168 1 -1.1104 6.40686 -3.89201 6.62166
189 1 -1.1104 6.12595 -1.18189 9.47503
178 1 -1.1104 6.27066 -3.98997 12.4298
185 1 -1.1104 6.2768 -0.930634 12.4613
182 1 -1.1104 6.32767 -4.08271 9.50404
338 2 2.2208 10.5418 14.2933 13.4809
9150 2 2.2208 13.2115 14.3018 10.8542
229 2 2.2208 7.48587 16.9151 7.93222
9162 2 2.2208 13.2723 0.248908 8.08727
230 2 2.2208 13.3055 -2.7569 10.8829
211 2 2.2208 10.2126 0.0056577 10.849
212 1 -1.1104 11.9055 -4.26651 11.9631
214 1 -1.1104 11.6652 -4.11592 9.23186
216 1 -1.1104 11.6541 -1.24896 12.2611
217 2 2.2208 10.4472 -2.6113 7.93607
219 1 -1.1104 11.729 -1.25853 9.38465
220 1 -1.1104 9.09268 -4.03173 12.1927
222 2 2.2208 7.75543 0.135837 7.9983
223 1 -1.1104 8.89148 -4.00301 9.24507
225 2 2.2208 7.64809 -2.73283 10.7305
227 1 -1.1104 8.94278 -1.27902 12.3303
228 1 -1.1104 9.04695 -1.34119 9.36422
199 1 -1.1104 9.14215 18.4075 12.117
27 2 2.2208 10.3778 17.2041 10.7861
239 1 -1.1104 3.46556 4.45877 6.6974
167 1 -1.1104 0.471412 1.53377 6.34073
173 1 -1.1104 3.38874 1.80837 6.74158
237 1 -1.1104 6.37018 4.12633 6.62864
177 1 -1.1104 0.646872 1.6424 12.3364
181 1 -1.1104 0.603025 1.68372 9.35592
187 2 2.2208 4.90896 2.93097 8.08315
191 1 -1.1104 3.2751 1.56823 12.1211
194 1 -1.1104 3.43715 1.49061 9.32453
196 2 2.2208 1.85954 3.01428 10.7464
240 2 2.2208 4.84397 5.87504 10.7075
246 1 -1.1104 0.511248 4.68499 11.9735
251 1 -1.1104 0.646462 4.36706 9.32192
255 1 -1.1104 3.36093 7.36289 12.347
256 2 2.2208 1.95544 5.92677 8.02972
258 1 -1.1104 3.43029 7.47298 9.45912
260 1 -1.1104 3.2505 4.44051 12.016
262 1 -1.1104 3.44538 4.40395 9.3734
242 1 -1.1104 0.488954 7.44214 12.2769
244 1 -1.1104 0.676772 7.39859 9.33758
179 1 -1.1104 6.07766 1.89525 12.053
183 1 -1.1104 6.62014 1.50494 9.61223
253 1 -1.1104 6.05347 4.32491 9.44893
243 1 -1.1104 6.13666 7.5391 12.3142
245 1 -1.1104 6.08723 7.35719 9.32705
248 1 -1.1104 6.15152 4.68813 12.3212
269 1 -1.1104 9.10221 4.5814 6.31632
266 1 -1.1104 11.7654 4.49013 6.438
267 1 -1.1104 8.85528 7.0734 6.46457
209 1 -1.1104 9.19471 1.58411 6.70165
337 2 2.2208 10.4937 19.8066 13.6865
8985 2 2.2208 13.1441 3.03722 11.0303
9061 2 2.2208 12.9711 5.76967 7.97108
213 1 -1.1104 11.4715 1.36527 12.35
215 1 -1.1104 12.0893 1.57661 9.71595
218 2 2.2208 10.5577 3.1364 7.94466
221 1 -1.1104 8.82702 1.36335 12.123
224 1 -1.1104 9.33783 1.65802 9.40025
226 2 2.2208 7.71373 3.14336 10.8472
268 1 -1.1104 8.93195 4.56686 9.51147
271 1 -1.1104 9.06962 4.49587 12.3267
275 2 2.2208 7.40577 5.74241 7.89217
276 2 2.2208 10.4638 5.96707 10.8924
279 1 -1.1104 11.8194 7.20257 9.38654
280 1 -1.1104 11.6519 4.33692 12.166
283 1 -1.1104 11.6779 4.39199 9.42387
278 1 -1.1104 11.889 7.15968 12.0788
285 1 -1.1104 9.06221 7.43901 12.3242
273 1 -1.1104 8.78768 7.40636 9.39332
105 1 -1.1104 11.9308 15.8769 12.1912
111 1 -1.1104 6.30082 12.887 6.49922
65 1 -1.1104 6.07951 10.1351 6.52156
62 1 -1.1104 0.522716 10.0288 6.46327
241 2 2.2208 4.77859 11.6997 10.7517
247 1 -1.1104 0.496121 10.296 12.1747
250 2 2.2208 4.77964 8.61068 8.01791
252 1 -1.1104 0.416225 10.1736 9.46661
257 2 2.2208 2.02475 11.3789 8.0338
259 2 2.2208 1.951 8.81328 10.9668
261 1 -1.1104 3.28193 10.2242 12.2981
263 1 -1.1104 3.42526 10.1567 9.36225
287 1 -1.1104 3.3169 12.9802 12.1379
294 1 -1.1104 0.530738 13.0433 9.36272
299 1 -1.1104 0.593986 13.0182 12.3776
305 1 -1.1104 3.35103 12.9863 9.50504
254 1 -1.1104 6.02721 10.2276 9.30868
249 1 -1.1104 6.36464 10.2673 12.173
297 1 -1.1104 6.29034 12.959 12.0754
290 1 -1.1104 6.20246 13.0267 9.28397
9151 2 2.2208 13.1509 17.2119 8.06829
313 2 2.2208 7.59859 14.2804 10.6584
312 1 -1.1104 9.08436 18.8463 9.48626
9066 2 2.2208 13.1724 8.64778 10.6933
9062 2 2.2208 13.2906 11.4212 8.01935
81 1 -1.1104 11.8417 12.8624 12.1783
83 1 -1.1104 11.7364 12.8361 9.47235
311 1 -1.1104 8.84855 12.8439 9.29982
165 1 -1.1104 9.04475 12.8972 12.0938
264 1 -1.1104 8.87016 10.1604 9.15286
270 1 -1.1104 9.14407 10.1223 12.1871
272 2 2.2208 7.40956 8.77434 10.7198
274 2 2.2208 7.58012 11.5348 7.89613
277 2 2.2208 10.4116 11.2332 10.7046
281 1 -1.1104 11.7456 10.0676 12.0673
282 2 2.2208 10.2661 8.69957 7.87855
284 1 -1.1104 11.8358 9.99493 9.20591
137 1 -1.1104 12.0163 15.606 9.41037
357 2 2.2208 10.4384 11.5663 -0.426072
302 1 -1.1104 0.583768 18.7622 6.66977
316 2 2.2208 7.51503 19.8118 11.0287
288 1 -1.1104 5.99736 18.2723 9.54508
306 1 -1.1104 6.20457 15.8383 12.0319
296 1 -1.1104 6.05418 18.4875 12.3808
289 1 -1.1104 6.2982 15.6704 9.1951
310 2 2.2208 1.87258 14.3307 10.8021
300 2 2.2208 4.72156 17.1741 10.8496
298 1 -1.1104 0.208509 18.4003 12.1538
292 1 -1.1104 0.401229 15.8952 9.27402
301 1 -1.1104 3.17237 18.6418 9.35954
293 2 2.2208 4.57419 19.8254 8.04451
308 1 -1.1104 3.4884 15.6364 12.1798
307 1 -1.1104 0.658267 15.4883 12.0441
309 2 2.2208 1.93652 20.0375 11.0854
304 1 -1.1104 3.00675 15.7098 9.44319
303 2 2.2208 1.91203 17.1978 8.03633
295 2 2.2208 4.62677 14.2631 7.96275
286 1 -1.1104 3.24816 18.5934 12.1735
291 1 -1.1104 0.235584 18.4141 9.32431
149 1 -1.1104 11.717 15.996 6.57025
156 1 -1.1104 9.05947 18.5517 6.48437
315 1 -1.1104 9.10659 15.651 12.0677
319 2 2.2208 4.9478 -2.63087 13.5994
342 2 2.2208 2.05883 -2.53508 -0.294994
353 2 2.2208 1.9693 8.58115 -0.309576
321 2 2.2208 4.68751 3.02654 13.4306
351 2 2.2208 7.60348 19.9688 -0.426692
329 2 2.2208 10.5564 8.8136 13.5838
358 2 2.2208 4.75972 0.0873811 16.5623
359 1 -1.1104 0.531033 -3.86781 17.7556
363 1 -1.1104 0.514167 -4.05476 14.808
371 1 -1.1104 0.505788 -1.16474 17.8875
373 2 2.2208 4.84607 -2.58994 19.3212
375 1 -1.1104 0.475601 -1.36243 15.1161
379 1 -1.1104 3.27497 -4.09723 17.8813
381 2 2.2208 1.98588 0.0583169 19.3774
382 1 -1.1104 3.31664 -3.92139 14.7543
386 2 2.2208 1.89854 -2.50986 16.6071
388 1 -1.1104 3.15083 -1.31192 17.9558
389 1 -1.1104 3.33883 -1.17572 15.1029
367 1 -1.1104 6.14271 -3.91119 15.2152
377 1 -1.1104 6.22117 -1.22902 15.0415
361 1 -1.1104 6.42026 -3.93374 17.8191
383 1 -1.1104 3.5378 -4.03482 20.7615
335 2 2.2208 1.74425 19.8791 27.7551
372 1 -1.1104 6.25142 -1.27919 17.8216
401 2 2.2208 10.4051 0.100494 16.3253
402 1 -1.1104 11.8364 -3.89867 18.0636
404 1 -1.1104 12.1118 -3.9661 15.0026
408 1 -1.1104 11.6974 -1.36226 17.7732
409 2 2.2208 10.3286 -2.47304 19.3689
411 1 -1.1104 11.8297 -1.24537 15.1343
413 1 -1.1104 8.99559 -3.88513 18.0072
415 2 2.2208 7.77538 0.336165 19.2091
416 1 -1.1104 9.226 -3.8047 15.1888
420 2 2.2208 7.61883 -2.4276 16.3943
422 1 -1.1104 9.09123 -1.0655 17.9151
423 1 -1.1104 9.0407 -1.15725 15.0076
417 1 -1.1104 9.16777 -3.96639 20.7225
405 1 -1.1104 11.7476 -3.76763 20.9606
9247 2 2.2208 13.4335 0.321788 19.2613
620 2 2.2208 10.5761 -5.23693 22.0998
9314 2 2.2208 13.2651 17.2365 25.0123
424 1 -1.1104 9.16848 -0.90193 20.6266
429 2 2.2208 13.29 -2.50668 16.5508
9181 2 2.2208 13.2702 14.4256 27.6201
365 1 -1.1104 0.535947 1.85568 15.2202
360 1 -1.1104 0.306311 1.53909 18.1445
374 2 2.2208 4.91837 2.9887 19.4269
380 1 -1.1104 3.32937 1.32673 17.8071
384 1 -1.1104 3.64049 1.58854 15.005
387 2 2.2208 2.03809 3.03764 16.4603
434 2 2.2208 4.72108 5.81643 16.4133
438 1 -1.1104 0.603736 7.19543 14.9561
442 1 -1.1104 0.452241 4.55277 17.6689
447 1 -1.1104 0.821456 4.56101 14.8901
456 2 2.2208 1.97026 5.95931 19.19
461 1 -1.1104 3.27384 4.42266 17.7485
463 1 -1.1104 3.63031 4.32128 14.8577
455 1 -1.1104 3.56163 7.35724 17.8484
436 1 -1.1104 0.597138 7.26766 17.875
458 1 -1.1104 3.35228 7.11532 15.0554
440 1 -1.1104 6.09516 7.18632 15.2485
437 1 -1.1104 6.21972 7.21639 17.9377
448 1 -1.1104 0.519272 4.71298 20.6579
459 1 -1.1104 3.68142 7.17214 20.6168
452 1 -1.1104 6.38804 4.45472 20.9703
369 1 -1.1104 6.46763 1.52251 15.1508
451 1 -1.1104 6.27099 4.42008 15.2273
444 1 -1.1104 6.21939 4.25933 18.1391
362 1 -1.1104 6.07839 1.4788 17.8358
464 1 -1.1104 3.41075 4.44305 20.657
370 1 -1.1104 6.48445 1.55178 20.6511
356 2 2.2208 7.66723 8.65389 27.5675
327 2 2.2208 1.95628 11.6277 13.6292
403 1 -1.1104 11.7922 1.60865 17.9426
406 1 -1.1104 12.0767 1.75485 15.0128
410 2 2.2208 10.4647 3.13686 19.2196
414 1 -1.1104 8.95253 1.89855 17.8377
418 1 -1.1104 9.08645 1.49377 15.2143
421 2 2.2208 7.55091 3.05601 16.5845
470 2 2.2208 10.5746 5.88976 16.4438
472 1 -1.1104 11.8516 7.31952 17.7602
473 1 -1.1104 11.9521 7.51863 14.9972
475 1 -1.1104 11.8932 4.32291 17.6614
478 1 -1.1104 11.9313 4.55464 15.0386
482 1 -1.1104 8.98935 7.35099 17.8094
483 2 2.2208 7.84306 5.94945 19.2664
488 1 -1.1104 9.11136 4.6377 17.8647
490 1 -1.1104 8.95768 4.55124 15.2011
485 1 -1.1104 9.17652 7.43624 15.097
474 1 -1.1104 12.0002 7.34234 20.6593
407 1 -1.1104 12.0299 1.81868 20.7869
9316 2 2.2208 13.2807 5.9955 19.1489
396 2 2.2208 13.386 3.05779 16.4692
486 1 -1.1104 9.02662 7.4833 20.6058
348 2 2.2208 7.53357 3.09744 27.6846
435 2 2.2208 4.9424 11.4412 16.4332
443 1 -1.1104 0.712355 10.0191 17.8071
446 2 2.2208 4.9179 8.69628 19.2133
449 1 -1.1104 0.697606 10.0973 14.8613
457 2 2.2208 2.03883 11.5862 19.2444
460 2 2.2208 2.08408 8.75214 16.4347
462 1 -1.1104 3.48888 10.1408 17.8548
465 1 -1.1104 3.3778 9.99322 15.0481
498 1 -1.1104 0.683375 12.6828 17.8278
502 1 -1.1104 0.70349 12.9225 15.0804
518 1 -1.1104 3.35132 12.8636 17.8593
521 1 -1.1104 3.43331 12.7181 15.0903
445 1 -1.1104 6.12945 10.1832 17.8393
450 1 -1.1104 0.713559 10.0723 20.652
506 1 -1.1104 6.14706 12.7636 14.9972
500 1 -1.1104 6.37971 12.9431 17.8309
453 1 -1.1104 6.2569 9.80962 15.0283
522 1 -1.1104 3.38197 12.6614 20.8669
507 1 -1.1104 6.09601 12.9007 20.6648
9317 2 2.2208 13.3065 11.5329 19.1573
471 2 2.2208 10.5621 11.6911 16.351
476 1 -1.1104 11.8569 10.1701 17.7918
477 2 2.2208 10.4684 8.72341 19.1398
480 1 -1.1104 12.1438 10.2121 15.0916
484 2 2.2208 7.50081 11.5081 19.2422
487 2 2.2208 7.95941 8.84 16.3909
489 1 -1.1104 9.3749 10.4798 17.8541
492 1 -1.1104 9.20229 10.1438 14.9264
534 1 -1.1104 11.8875 12.9679 17.8344
536 1 -1.1104 11.9162 12.9838 14.9915
545 1 -1.1104 9.01905 13.2018 17.3694
548 1 -1.1104 8.9624 12.9624 14.8314
493 1 -1.1104 9.01898 10.3268 20.4555
481 1 -1.1104 11.8534 10.0433 20.5368
9315 2 2.2208 13.3955 8.62834 16.5062
537 1 -1.1104 12.0107 12.8994 20.6898
512 2 2.2208 4.80953 14.3484 19.1384
525 2 2.2208 1.96727 14.2063 16.3623
497 2 2.2208 4.8376 16.906 16.5162
499 1 -1.1104 0.585351 18.551 17.6798
504 1 -1.1104 0.650735 18.5838 14.7906
510 1 -1.1104 0.72533 15.8675 17.5913
513 2 2.2208 4.80519 19.9058 19.1286
514 1 -1.1104 0.392984 15.4381 14.9374
519 1 -1.1104 3.50736 18.3642 17.8108
520 2 2.2208 1.96373 17.0898 18.9526
523 1 -1.1104 3.49352 18.2573 14.9911
526 2 2.2208 1.995 19.9246 16.3258
527 1 -1.1104 3.44816 15.5978 17.6644
528 1 -1.1104 3.47834 15.4149 15.0077
508 1 -1.1104 6.45253 18.5519 15.2717
515 1 -1.1104 0.795924 15.6504 20.3169
516 1 -1.1104 6.25911 15.6221 14.8888
501 1 -1.1104 6.21889 18.6619 17.9075
511 1 -1.1104 6.29659 15.734 17.683
9388 2 2.2208 13.3669 19.9195 16.7205
552 2 2.2208 7.60733 14.5506 16.2537
541 2 2.2208 10.488 14.3087 19.0405
533 2 2.2208 10.4472 17.1764 16.5544
535 1 -1.1104 11.9585 18.371 17.9141
538 1 -1.1104 12.0314 18.6038 15.1391
540 1 -1.1104 11.786 15.7508 17.7808
542 2 2.2208 10.454 20.1259 19.325
543 1 -1.1104 11.7475 15.8482 15.2426
546 1 -1.1104 9.03786 18.6163 17.8336
547 2 2.2208 7.61055 17.2735 19.2421
550 1 -1.1104 9.11598 18.3702 14.9344
553 2 2.2208 7.73371 20.0795 16.4218
554 1 -1.1104 9.16867 15.8322 17.7483
555 1 -1.1104 8.95695 15.6912 14.8421
9385 2 2.2208 13.3389 14.3476 16.4826
551 1 -1.1104 8.95377 18.5713 20.8996
544 1 -1.1104 12.1387 15.8946 20.6884
653 2 2.2208 10.6213 17.2023 22.0506
9387 2 2.2208 13.5973 17.1023 19.2676
539 1 -1.1104 12.0274 18.5923 20.8384
556 1 -1.1104 9.17098 15.8017 20.622
378 1 -1.1104 6.34399 -1.01756 20.6937
368 1 -1.1104 6.28724 -3.80027 20.7226
390 1 -1.1104 3.41328 -1.38051 20.7688
679 1 -1.1104 12.0497 15.7391 23.6795
376 1 -1.1104 0.424655 -1.45137 20.8714
364 1 -1.1104 0.652223 -4.17212 20.7801
561 2 2.2208 4.84268 0.0961372 22.1348
562 1 -1.1104 0.556065 -4.11199 23.4893
566 1 -1.1104 0.564657 -3.96891 26.4154
570 1 -1.1104 0.691041 -1.18605 23.6583
572 2 2.2208 4.71687 -2.57599 24.9502
574 1 -1.1104 0.817751 -1.23083 26.1745
576 1 -1.1104 3.43101 -3.94146 23.4388
578 2 2.2208 2.13948 0.364537 25.0339
579 1 -1.1104 3.38019 -3.80758 26.4229
581 2 2.2208 1.92081 -2.65341 22.1803
583 1 -1.1104 3.45961 -1.12239 23.6723
584 1 -1.1104 3.48909 -0.929142 26.2087
575 1 -1.1104 6.11944 -0.969411 26.0878
571 1 -1.1104 6.60866 -1.15686 23.5828
568 1 -1.1104 6.19487 -3.66876 26.4841
564 1 -1.1104 6.22585 -3.9509 23.3509
326 2 2.2208 4.69028 8.52601 13.8029
412 1 -1.1104 11.9504 -0.910924 20.5794
350 2 2.2208 10.4422 17.198 27.7313
623 2 2.2208 13.2888 -2.66455 22.2429
597 2 2.2208 10.5382 0.266983 22.1362
598 1 -1.1104 11.991 -4.09177 23.6941
600 1 -1.1104 12.2131 -4.05528 26.3685
602 1 -1.1104 11.7727 -1.22874 23.4085
603 2 2.2208 10.5433 -2.7109 24.7273
605 1 -1.1104 11.862 -1.27451 26.3544
606 1 -1.1104 9.17358 -3.95624 23.3184
608 2 2.2208 7.58157 0.423552 24.8172
609 1 -1.1104 9.16583 -4.36596 26.2093
611 2 2.2208 7.81678 -2.42318 22.0917
613 1 -1.1104 9.11754 -1.25097 23.4168
614 1 -1.1104 8.978 -1.34846 26.2373
9287 2 2.2208 13.1978 0.271613 25.0089
349 2 2.2208 13.2804 -2.50134 27.7969
441 1 -1.1104 6.36719 7.38892 20.7183
468 1 -1.1104 9.0248 15.7396 23.45
366 1 -1.1104 0.617862 1.77992 20.7864
385 1 -1.1104 3.46 1.59509 20.5586
439 1 -1.1104 0.612133 7.36444 20.7091
563 1 -1.1104 0.332993 1.52309 23.6484
567 1 -1.1104 0.561614 1.56655 26.3137
573 2 2.2208 4.83033 2.9392 24.9281
577 1 -1.1104 3.3805 1.57359 23.3986
580 1 -1.1104 3.42588 1.75483 26.3341
582 2 2.2208 2.0435 3.23423 22.0975
626 2 2.2208 4.99845 5.96437 22.1715
632 1 -1.1104 0.866943 4.43505 23.7322
637 1 -1.1104 0.687981 4.62661 26.4681
642 2 2.2208 2.04828 6.02583 24.9058
644 1 -1.1104 3.49043 7.28346 26.2533
646 1 -1.1104 3.63316 4.46002 23.5633
648 1 -1.1104 3.47327 4.27303 26.2545
630 1 -1.1104 0.532907 7.18909 26.598
628 1 -1.1104 0.622492 7.14429 23.2852
634 1 -1.1104 6.42422 4.28573 23.4578
565 1 -1.1104 6.03767 1.6237 23.4126
569 1 -1.1104 6.33346 1.7744 26.3822
641 1 -1.1104 3.42937 7.31141 23.3349
639 1 -1.1104 6.44306 4.45152 26.1816
631 1 -1.1104 6.17347 7.2386 26.1549
629 1 -1.1104 6.31049 7.35425 23.5262
530 2 2.2208 10.3782 19.996 25.015
433 2 2.2208 7.59874 14.3698 22.1123
9448 2 2.2208 13.4246 3.01175 22.0463
479 1 -1.1104 11.9501 4.53873 20.3965
9243 2 2.2208 13.337 5.93649 24.8941
491 1 -1.1104 9.19347 4.64957 20.6056
419 1 -1.1104 9.29267 1.77879 20.8492
599 1 -1.1104 11.8822 1.70495 23.5709
601 1 -1.1104 11.8341 1.60384 26.3896
604 2 2.2208 10.47 3.16913 25.0292
607 1 -1.1104 9.12864 1.61372 23.7292
610 1 -1.1104 9.02956 1.3685 26.2592
612 2 2.2208 7.69616 2.98826 22.0263
658 1 -1.1104 9.08763 4.3525 26.4447
660 1 -1.1104 9.22742 4.4926 23.4522
664 2 2.2208 7.69901 5.77614 24.6902
665 2 2.2208 10.5024 5.85529 22.0569
667 1 -1.1104 11.7632 7.29404 23.6549
669 1 -1.1104 11.9668 4.34577 23.4992
672 1 -1.1104 12.1127 4.35719 26.4236
674 1 -1.1104 9.0747 7.10758 23.3997
662 1 -1.1104 9.28703 7.19349 26.2525
668 1 -1.1104 12.1633 7.47166 26.2654
432 1 -1.1104 8.86023 18.5299 26.4937
503 1 -1.1104 0.875887 13.0076 20.5927
466 1 -1.1104 3.39885 9.9198 20.5726
454 1 -1.1104 6.13507 10.1792 20.8334
627 2 2.2208 4.72356 11.5939 22.1506
633 1 -1.1104 0.698746 9.8862 23.4992
636 2 2.2208 4.8541 8.80808 24.957
638 1 -1.1104 0.641879 10.0031 26.3877
643 2 2.2208 1.91331 11.3018 24.7445
645 2 2.2208 2.1574 8.66389 21.9595
647 1 -1.1104 3.58852 10.2968 23.7154
649 1 -1.1104 3.42267 10.0247 26.4635
560 1 -1.1104 3.3592 12.8919 26.1978
596 1 -1.1104 0.719703 12.7285 23.432
625 1 -1.1104 0.566266 12.7572 26.1021
675 1 -1.1104 3.42677 12.9917 23.5043
676 1 -1.1104 6.08542 12.8091 26.4339
616 1 -1.1104 6.34502 12.9676 23.5043
635 1 -1.1104 6.30007 10.1162 23.5893
640 1 -1.1104 6.13768 10.1251 26.3242
469 1 -1.1104 9.37908 15.7138 26.1734
9507 2 2.2208 13.441 8.70836 22.0032
427 2 2.2208 7.53636 -5.31201 19.376
549 1 -1.1104 9.06143 13.0243 20.5785
655 1 -1.1104 11.9386 18.5422 23.5576
9244 2 2.2208 13.1786 11.6098 25.043
657 1 -1.1104 8.98116 9.95985 26.1792
659 1 -1.1104 9.08781 9.96839 23.3739
661 2 2.2208 7.53838 8.84524 22.0853
663 2 2.2208 7.64107 11.5138 24.9357
666 2 2.2208 10.5914 11.4097 22.0492
670 1 -1.1104 12.1806 10.1072 23.4928
671 2 2.2208 10.4393 8.57806 24.8777
673 1 -1.1104 11.7515 10.3118 26.1455
656 1 -1.1104 11.8328 13.0345 26.3198
431 1 -1.1104 9.27043 12.8292 26.2352
494 1 -1.1104 9.11711 12.8501 23.5507
654 1 -1.1104 11.8803 12.8197 23.4417
529 1 -1.1104 3.80611 15.6711 20.796
524 1 -1.1104 3.54389 18.446 20.4585
505 1 -1.1104 0.555799 18.6374 20.5709
509 1 -1.1104 6.09486 18.8731 20.7814
9318 2 2.2208 13.4945 14.2891 22.1849
517 1 -1.1104 6.31389 15.8312 20.4762
400 1 -1.1104 6.43772 18.6948 26.3259
652 1 -1.1104 6.4072 15.764 26.2937
624 1 -1.1104 6.3617 18.6147 23.5842
593 2 2.2208 4.96307 17.1259 22.0763
586 2 2.2208 1.9842 17.2646 24.8515
587 1 -1.1104 3.33191 18.5694 26.2898
622 2 2.2208 4.8832 20.1787 24.936
615 1 -1.1104 0.632983 18.3104 23.2339
651 1 -1.1104 0.329961 18.4959 26.2839
650 1 -1.1104 0.778628 15.643 26.0129
531 2 2.2208 2.08323 14.2913 22.1755
617 2 2.2208 4.94077 14.4641 24.9605
677 1 -1.1104 3.50922 18.3257 23.4139
532 2 2.2208 2.01478 19.7625 21.8736
557 1 -1.1104 3.23498 15.5635 23.5644
558 1 -1.1104 0.406362 15.5312 23.1432
585 1 -1.1104 3.5031 15.8661 26.2244
559 1 -1.1104 6.12355 15.8693 23.45
9288 2 2.2208 13.2269 19.9309 22.1619
398 1 -1.1104 9.29172 18.5366 23.5015
496 1 -1.1104 12.0559 15.7872 26.3686
399 2 2.2208 7.69447 17.3095 24.7681
467 2 2.2208 7.58372 20.0869 22.0421
680 2 2.2208 10.4065 14.1488 24.8194
678 1 -1.1104 11.4847 18.6984 26.2204
333 2 2.2208 2.00224 14.4285 27.5642
346 2 2.2208 10.2957 0.0176821 27.6374
352 2 2.2208 4.82616 5.81495 27.636
324 2 2.2208 10.3832 3.10571 13.9077
9184 2 2.2208 13.2585 17.4449 13.7983
340 2 2.2208 13.2173 20.0112 27.729
318 2 2.2208 13.2325 0.105022 13.6939
9183 2 2.2208 13.4471 11.4895 13.6297
334 2 2.2208 4.73492 17.097 27.6152
355 2 2.2208 10.3984 5.7719 27.7842
345 2 2.2208 7.62531 14.3481 27.6741
9180 2 2.2208 13.3986 5.95019 13.715
322 2 2.2208 7.72773 0.229974 13.6811
332 2 2.2208 4.91485 19.8078 13.9207
347 2 2.2208 7.62601 -2.61728 27.6587
323 2 2.2208 10.4349 -2.47134 13.6911
341 2 2.2208 4.75889 0.574929 27.65
343 2 2.2208 1.98312 2.94918 27.7272
328 2 2.2208 7.61547 5.9898 13.8092
681 2 2.2208 5.04959 22.8214 5.25002
683 1 -1.1104 0.597747 24.0482 1.12491
684 1 -1.1104 0.643156 24.3525 3.92311
685 1 -1.1104 0.522011 21.287 0.868191
687 2 2.2208 4.99027 25.7464 2.57155
688 1 -1.1104 0.771697 21.3675 3.69096
690 1 -1.1104 3.36651 23.9033 1.05922
691 2 2.2208 1.99091 22.8146 2.60155
693 1 -1.1104 3.48701 24.3229 4.04195
694 2 2.2208 1.93183 25.6178 5.26623
695 1 -1.1104 3.25451 21.2791 1.05511
697 1 -1.1104 3.52968 21.4188 4.11261
696 1 -1.1104 3.49623 26.7542 0.861126
706 1 -1.1104 6.23624 21.4456 3.55405
704 1 -1.1104 6.35381 21.4372 0.943518
698 1 -1.1104 3.61689 27.2794 3.62491
689 1 -1.1104 0.532685 27.0053 3.8543
707 1 -1.1104 6.26725 27.2469 3.69457
826 1 -1.1104 6.32085 21.452 6.63592
702 1 -1.1104 6.18275 24.2263 0.898917
703 1 -1.1104 6.23541 24.2072 3.84902
705 1 -1.1104 6.22484 27.0568 1.05855
686 1 -1.1104 0.636084 26.6978 0.975662
1013 2 2.2208 2.21163 39.7797 13.5588
1022 2 2.2208 4.71976 28.444 -0.431693
9863 2 2.2208 12.9951 22.8298 2.26466
708 2 2.2208 10.2325 22.7422 5.22097
710 1 -1.1104 11.8805 24.3646 0.979401
711 1 -1.1104 11.6973 24.0036 3.75077
712 1 -1.1104 11.7189 21.5843 0.934141
714 2 2.2208 10.441 25.544 2.28653
715 1 -1.1104 11.6856 21.3076 3.92596
717 1 -1.1104 9.00992 24.2757 0.975422
718 2 2.2208 7.55329 22.909 2.29182
720 1 -1.1104 9.04086 24.463 3.92312
721 2 2.2208 7.60184 25.7818 5.3318
722 1 -1.1104 9.13126 21.3711 0.920322
724 1 -1.1104 9.04706 21.7068 3.65773
716 1 -1.1104 11.8203 27.0133 3.95583
725 1 -1.1104 9.01212 27.3097 3.60482
9864 2 2.2208 13.2118 25.5884 5.18229
858 1 -1.1104 8.953 24.2808 6.60021
713 1 -1.1104 11.9666 27.1944 0.901208
859 1 -1.1104 8.93472 21.4596 6.48889
682 2 2.2208 4.84495 28.6012 5.04721
692 2 2.2208 2.00123 28.4538 2.18837
730 1 -1.1104 0.677949 29.7571 0.879599
733 1 -1.1104 0.744152 29.842 3.77667
736 1 -1.1104 0.595415 32.7249 1.02944
737 2 2.2208 4.94054 31.3362 2.28532
739 1 -1.1104 0.909497 32.5952 3.80471
741 1 -1.1104 3.37008 29.8142 1.13286
744 1 -1.1104 3.46972 30.0493 3.68829
746 2 2.2208 2.20145 31.2952 5.13898
748 1 -1.1104 3.33143 32.6434 0.763512
749 1 -1.1104 3.52314 32.8607 3.60811
879 1 -1.1104 0.735877 29.6087 6.6732
753 1 -1.1104 6.05491 29.8709 0.791531
887 1 -1.1104 3.70234 32.7583 6.60434
754 1 -1.1104 6.39091 30.0471 3.80519
755 1 -1.1104 6.16829 32.8359 0.874074
740 1 -1.1104 6.29073 32.7202 3.67491
881 1 -1.1104 6.15077 29.9418 6.65255
883 1 -1.1104 0.864156 32.7013 6.78459
884 1 -1.1104 6.38532 32.7648 6.49856
723 1 -1.1104 9.30669 27.0901 0.63018
860 1 -1.1104 9.00274 27.16 6.5343
709 2 2.2208 10.3594 28.3456 5.21375
719 2 2.2208 7.57659 28.5174 2.27945
757 1 -1.1104 12.0443 30.0315 0.835085
759 1 -1.1104 11.8893 29.8521 3.78076
761 1 -1.1104 11.9265 32.9052 0.810969
762 2 2.2208 10.488 31.1792 2.10701
764 1 -1.1104 12.0041 32.7702 3.53656
765 1 -1.1104 8.98353 29.9015 0.787895
768 1 -1.1104 9.0957 29.9042 3.4891
770 2 2.2208 7.6871 31.3575 5.08538
772 1 -1.1104 9.00271 32.7771 0.887883
773 1 -1.1104 9.18349 32.7274 3.6889
913 1 -1.1104 11.8899 29.748 6.46647
916 1 -1.1104 9.09098 30.012 6.48408
727 2 2.2208 13.4017 28.6909 2.56752
9613 2 2.2208 13.313 31.4091 5.2518
729 2 2.2208 4.97753 34.2276 5.1605
731 1 -1.1104 0.800117 35.5765 0.742956
734 1 -1.1104 0.710218 35.4544 3.76282
738 2 2.2208 4.96566 37.0115 2.43962
742 1 -1.1104 3.35672 35.6468 0.980693
743 2 2.2208 1.99732 34.2365 2.23133
745 1 -1.1104 3.40302 35.6294 3.6689
747 2 2.2208 2.21011 36.9812 5.21535
775 2 2.2208 5.11001 40.1482 5.05824
781 1 -1.1104 0.693488 38.3784 0.885457
786 1 -1.1104 0.784432 38.1622 3.80629
791 2 2.2208 2.27374 39.924 2.28313
795 1 -1.1104 3.53879 38.5265 0.929759
797 1 -1.1104 3.7378 38.5091 3.69903
788 1 -1.1104 6.35393 38.5666 3.85284
732 1 -1.1104 6.24902 35.6913 0.762341
783 1 -1.1104 6.46132 38.0873 1.00927
880 1 -1.1104 0.760185 35.6522 6.50137
735 1 -1.1104 6.28664 35.5914 3.8351
886 1 -1.1104 3.55344 35.3342 6.72123
756 2 2.2208 10.6624 34.2428 5.07097
758 1 -1.1104 11.6636 35.6423 0.846621
760 1 -1.1104 11.8796 35.5845 3.45391
763 2 2.2208 10.7395 37.1846 2.12431
766 1 -1.1104 8.98116 35.5647 0.770936
767 2 2.2208 7.74387 34.4308 2.1768
769 1 -1.1104 9.02501 35.7982 3.64577
771 2 2.2208 7.81434 37.0684 5.0423
802 2 2.2208 10.5264 40.0475 5.27113