ITEM: TIMESTEP
60000
ITEM: NUMBER OF ATOMS
17700
ITEM: BOX BOUNDS pp pp pp
-4.4362610045508311e-01 2.7783626100454899e+01
-5.4154091669495790e+00 3.3349540916695139e+02
-4.3734595322489467e-01 2.7777345953224941e+01
ITEM: ATOMS id type q x y z
1 2 2.2208 5.42249 0.0648432 5.17695
2 1 -1.1104 1.16707 -4.34096 1.004
6 1 -1.1104 1.47561 -4.1844 3.96467
10 1 -1.1104 1.18494 -1.42863 1.21225
12 2 2.2208 5.30457 -2.60625 2.28478
14 1 -1.1104 0.994554 -1.54961 3.93306
16 1 -1.1104 4.14259 -4.04994 0.989943
18 2 2.2208 2.65814 0.143732 2.21251
19 1 -1.1104 4.27433 -4.09897 3.76082
21 2 2.2208 2.77981 -2.83325 5.18266
23 1 -1.1104 3.93225 -1.30733 0.838448
24 1 -1.1104 3.93899 -1.35152 3.67757
25 2 2.2208 -0.366382 -2.74133 2.5005
170 1 -1.1104 1.44252 -1.56428 6.70444
26 2 2.2208 -0.285464 -0.079178 5.04967
231 2 2.2208 8.40401 -5.3581 8.05064
9163 2 2.2208 -0.197663 20.0098 8.17591
4 1 -1.1104 6.87878 -4.06241 0.995877
8 1 -1.1104 6.84436 -4.20227 3.9035
15 1 -1.1104 6.64413 -1.50385 3.7088
11 1 -1.1104 6.81808 -1.09023 1.02515
31 2 2.2208 11.1342 0.0369814 5.08929
32 1 -1.1104 12.5185 -3.96628 0.989354
34 1 -1.1104 12.446 -4.18284 3.91467
36 1 -1.1104 12.4285 -1.27231 1.2907
37 2 2.2208 11.144 -2.65812 2.463
39 1 -1.1104 12.6025 -1.52566 3.71934
40 1 -1.1104 9.74952 -4.12871 0.958584
42 2 2.2208 8.14623 0.205213 2.38277
43 1 -1.1104 9.74128 -3.89578 4.04016
45 2 2.2208 8.05355 -2.70706 5.06211
47 1 -1.1104 9.64199 -1.31286 1.14546
48 1 -1.1104 9.65213 -1.03667 3.81835
52 2 2.2208 10.9574 -5.34872 5.19532
208 1 -1.1104 9.75108 -4.14051 6.83495
205 1 -1.1104 12.5074 -4.26902 6.57001
168 1 -1.1104 6.96609 -3.89855 6.6769
207 1 -1.1104 12.5403 -1.15093 6.57665
322 2 2.2208 8.4155 0.180381 13.7504
3 1 -1.1104 1.32608 1.62094 0.876764
7 1 -1.1104 1.22708 1.45198 3.63814
13 2 2.2208 5.30957 2.94102 2.46753
17 1 -1.1104 4.17758 1.52462 1.09243
20 1 -1.1104 3.80154 1.40674 3.72764
22 2 2.2208 2.44693 2.87038 5.10294
54 2 2.2208 5.36876 5.74326 5.23129
58 1 -1.1104 1.3049 7.17161 3.94382
60 1 -1.1104 1.2823 4.43011 0.992719
67 1 -1.1104 1.22997 4.11005 3.82483
72 2 2.2208 2.66322 5.76932 2.28324
76 1 -1.1104 4.0032 4.40216 1.04031
79 1 -1.1104 3.99454 4.32097 3.87163
71 1 -1.1104 4.11786 7.25795 1.08653
74 1 -1.1104 4.01244 7.27645 3.84912
56 1 -1.1104 1.07796 7.28067 1.15927
9149 2 2.2208 0.00981573 2.93725 2.21169
9156 2 2.2208 13.6323 5.86211 2.5422
9173 2 2.2208 -0.124805 5.8518 -0.406456
9152 2 2.2208 -0.124171 5.69725 5.21754
9164 2 2.2208 -0.334828 17.0839 10.9491
9 1 -1.1104 6.8166 1.57448 3.95058
69 1 -1.1104 7.02012 4.60144 3.70463
59 1 -1.1104 6.71193 7.36452 3.81949
57 1 -1.1104 6.87324 7.30071 1.00249
63 1 -1.1104 6.82596 4.51333 0.958021
5 1 -1.1104 6.76317 1.5907 1.19775
33 1 -1.1104 12.5104 1.55683 1.13572
35 1 -1.1104 12.6167 1.37608 4.12227
38 2 2.2208 11.1365 3.06611 2.5705
41 1 -1.1104 9.53556 1.69129 1.15758
44 1 -1.1104 9.85199 1.65849 3.85168
46 2 2.2208 8.38507 2.89134 5.28926
84 2 2.2208 10.8528 6.03228 5.56834
88 1 -1.1104 12.3361 4.43664 0.838021
92 1 -1.1104 12.6097 4.20289 3.56978
95 2 2.2208 8.17451 5.81931 2.38271
97 1 -1.1104 9.56767 7.31813 4.1434
99 1 -1.1104 9.55993 4.51563 1.1373
102 1 -1.1104 9.70318 4.57495 4.12649
94 1 -1.1104 9.79841 7.21252 1.22803
86 1 -1.1104 12.2168 7.21435 1.04641
87 1 -1.1104 12.4753 7.20351 3.94288
169 1 -1.1104 6.80188 1.55627 6.62613
209 1 -1.1104 9.8373 1.22295 6.67928
237 1 -1.1104 6.79005 4.41548 6.49971
288 1 -1.1104 6.90057 18.6459 9.59605
9154 2 2.2208 -0.219601 11.3414 5.2832
55 2 2.2208 5.47376 11.5228 5.14974
61 1 -1.1104 1.17712 9.91379 0.876567
66 2 2.2208 5.50029 8.73609 2.54229
68 1 -1.1104 1.29174 10.1047 4.25235
73 2 2.2208 2.67205 11.5365 2.29593
75 2 2.2208 2.54759 8.60284 5.36304
77 1 -1.1104 4.09624 9.90014 1.02009
80 1 -1.1104 3.92207 10.2127 3.80809
107 1 -1.1104 1.2608 12.9754 1.01662
113 1 -1.1104 1.18941 12.787 3.82369
123 1 -1.1104 4.19972 12.825 0.798372
128 1 -1.1104 3.97852 13.1045 3.81536
130 2 2.2208 2.49093 14.1878 5.30915
119 2 2.2208 5.40112 14.1864 2.58049
9153 2 2.2208 -0.199934 8.78285 2.49584
124 1 -1.1104 3.89721 12.8838 6.75084
108 1 -1.1104 1.1444 12.7863 6.71504
352 2 2.2208 5.48643 5.88128 -0.378283
9072 2 2.2208 -0.0746079 11.1619 10.9786
313 2 2.2208 8.21423 14.4141 10.7971
110 1 -1.1104 6.85716 12.99 1.02472
115 1 -1.1104 7.09695 12.9126 3.8041
64 1 -1.1104 6.90208 10.2658 1.06756
70 1 -1.1104 6.74842 10.1616 3.74495
85 2 2.2208 11.2546 11.516 5.11456
89 1 -1.1104 12.6224 10.3189 1.06876
91 2 2.2208 11.005 8.65022 2.59359
93 1 -1.1104 12.6444 9.91923 3.88663
96 2 2.2208 8.3349 11.5838 2.52604
98 2 2.2208 8.20628 8.65801 5.18034
100 1 -1.1104 9.84259 10.1422 1.2511
103 1 -1.1104 9.61374 10.2903 4.08523
142 1 -1.1104 12.568 13.1037 1.27981
146 1 -1.1104 12.5069 12.9403 3.93062
153 1 -1.1104 9.53635 12.8093 1.0575
158 1 -1.1104 9.97231 12.9217 3.968
150 2 2.2208 11.1674 14.4267 2.37828
101 1 -1.1104 9.60484 10.0848 6.61253
154 1 -1.1104 9.41695 12.8529 6.74032
9176 2 2.2208 -0.217758 11.5947 -0.235569
9158 2 2.2208 -0.0342318 19.8423 2.64268
9157 2 2.2208 -0.156754 14.3993 2.50916
324 2 2.2208 11.1721 2.8755 13.6973
351 2 2.2208 8.30875 19.9009 -0.354444
106 2 2.2208 5.54419 17.0992 5.42759
109 1 -1.1104 1.31059 18.7867 1.05064
114 1 -1.1104 1.44373 18.5067 3.96879
116 1 -1.1104 1.27649 15.9095 1.13517
120 2 2.2208 5.43424 19.8544 2.52334
121 1 -1.1104 1.35168 15.7235 4.02404
125 1 -1.1104 4.04738 18.5743 1.2934
127 2 2.2208 2.75152 17.0295 2.59236
129 1 -1.1104 4.10406 18.683 3.92454
131 2 2.2208 2.49063 19.8437 5.38473
132 1 -1.1104 4.09089 15.6565 1.06361
134 1 -1.1104 4.1188 15.8982 3.84568
126 1 -1.1104 3.92719 18.4749 6.90433
312 1 -1.1104 9.49174 18.7967 9.44724
122 1 -1.1104 6.93082 15.6532 3.8112
9159 2 2.2208 -0.053822 17.1359 5.33785
342 2 2.2208 2.64407 -2.8791 -0.329285
117 1 -1.1104 1.36622 15.639 6.76939
350 2 2.2208 11.3262 17.2405 -0.311496
118 1 -1.1104 6.89069 15.7945 6.92746
160 2 2.2208 8.20033 14.2331 5.22533
139 1 -1.1104 6.85859 18.4325 3.90036
140 1 -1.1104 6.954 15.9667 1.0853
138 1 -1.1104 6.86643 18.5797 1.04633
141 2 2.2208 10.9293 17.0222 5.19713
144 1 -1.1104 12.6128 18.6774 0.99748
147 1 -1.1104 12.3851 18.5384 3.85555
148 1 -1.1104 12.6749 15.8723 1.00093
151 2 2.2208 11.1354 20.0882 2.56584
152 1 -1.1104 12.498 15.7967 3.88214
155 1 -1.1104 9.71707 18.736 1.18357
157 2 2.2208 8.16596 17.2206 2.42813
159 1 -1.1104 9.75431 18.402 3.89998
161 2 2.2208 8.43239 19.8248 5.47201
162 1 -1.1104 9.84251 15.69 0.884008
164 1 -1.1104 9.58608 15.6303 3.62473
135 2 2.2208 10.9724 14.4188 8.06746
163 1 -1.1104 9.71416 15.7465 6.62573
356 2 2.2208 8.4595 8.83263 -0.149537
334 2 2.2208 5.35755 17.1804 -0.409262
166 1 -1.1104 1.04478 -4.32595 6.69937
174 1 -1.1104 4.16682 -1.38379 6.54729
172 1 -1.1104 4.08223 -4.16899 6.57096
175 2 2.2208 5.58679 0.0774681 10.925
176 1 -1.1104 1.16935 -4.02989 12.3468
180 1 -1.1104 1.40882 -4.3451 9.70527
184 1 -1.1104 0.994962 -1.10652 12.3856
186 2 2.2208 5.51857 -2.56254 8.04352
188 1 -1.1104 1.63369 -1.12053 9.66407
190 1 -1.1104 4.01448 -4.11571 12.2333
192 2 2.2208 2.66619 0.164924 8.03422
193 1 -1.1104 4.17277 -4.08615 9.53751
195 2 2.2208 2.65919 -2.65482 10.9139
197 1 -1.1104 4.10776 -1.21076 11.9938
198 1 -1.1104 4.43639 -1.02989 9.28605
201 2 2.2208 -0.169076 0.231519 10.8236
200 2 2.2208 -0.234616 -2.73579 7.9227
345 2 2.2208 8.18476 14.3314 -0.393085
171 1 -1.1104 6.93999 -1.16668 6.46311
182 1 -1.1104 7.00143 -3.86898 9.53705
178 1 -1.1104 7.00734 -4.13755 12.1479
189 1 -1.1104 7.07446 -1.10756 9.55576
210 1 -1.1104 9.64069 -1.32128 6.55371
185 1 -1.1104 6.90867 -1.36635 12.3044
211 2 2.2208 11.0974 0.180069 10.8124
212 1 -1.1104 12.8357 -4.09684 12.4421
214 1 -1.1104 12.4148 -4.06587 9.44066
216 1 -1.1104 12.6788 -1.36346 12.3092
217 2 2.2208 11.115 -2.81091 8.16502
219 1 -1.1104 12.2265 -1.42358 9.5322
220 1 -1.1104 9.9377 -4.14889 12.5019
222 2 2.2208 8.25006 0.0543377 7.98145
223 1 -1.1104 9.7043 -4.12158 9.53908
225 2 2.2208 8.38481 -2.61064 10.8166
227 1 -1.1104 9.70834 -1.36156 12.2622
228 1 -1.1104 9.74972 -1.20876 9.2998
9080 2 2.2208 -0.331712 5.53855 10.9368
167 1 -1.1104 1.20844 1.40172 6.45473
9161 2 2.2208 -0.253255 2.84288 7.84119
234 1 -1.1104 1.28428 6.88085 6.6696
173 1 -1.1104 3.9168 1.74347 6.72007
236 1 -1.1104 1.1615 4.23175 6.75285
238 1 -1.1104 4.117 7.44729 6.78912
239 1 -1.1104 3.80639 4.67692 6.44826
177 1 -1.1104 1.25618 1.52394 12.1734
181 1 -1.1104 1.15782 1.60003 9.22418
187 2 2.2208 5.47868 3.01184 8.06489
191 1 -1.1104 4.11315 1.25567 12.4703
194 1 -1.1104 4.14879 1.48117 9.62153
196 2 2.2208 2.61174 2.82767 10.9009
240 2 2.2208 5.35618 5.84987 10.8814
246 1 -1.1104 1.14192 4.15504 12.273
251 1 -1.1104 1.14295 4.21497 9.492
255 1 -1.1104 4.04718 7.30391 12.2779
256 2 2.2208 2.64082 5.87819 8.07739
258 1 -1.1104 4.02454 7.3845 9.46146
260 1 -1.1104 3.81208 4.33546 12.2083
262 1 -1.1104 3.88248 4.39081 9.49077
242 1 -1.1104 1.12572 7.08286 12.4362
244 1 -1.1104 1.22514 7.01045 9.59779
235 1 -1.1104 6.92459 7.14968 6.50627
206 1 -1.1104 12.4919 1.57894 6.77236
269 1 -1.1104 9.74332 4.39005 6.78487
248 1 -1.1104 6.69861 4.37465 12.0058
253 1 -1.1104 6.77429 4.48214 9.5405
183 1 -1.1104 6.91823 1.80027 9.5553
265 1 -1.1104 12.4484 7.2717 6.66721
267 1 -1.1104 9.51069 7.3251 6.82887
266 1 -1.1104 12.5738 4.71729 6.43796
243 1 -1.1104 7.05991 7.15531 12.0122
179 1 -1.1104 7.0252 1.40403 12.2603
213 1 -1.1104 12.7162 1.31793 12.4019
215 1 -1.1104 12.3715 1.63626 9.5176
218 2 2.2208 10.9701 2.8154 8.14544
221 1 -1.1104 9.82773 1.57628 12.4079
224 1 -1.1104 9.55859 1.46747 9.40172
226 2 2.2208 8.27864 2.93221 10.9024
268 1 -1.1104 9.62069 4.43713 9.48712
271 1 -1.1104 9.31224 4.43205 12.2489
275 2 2.2208 8.21877 5.86752 8.23103
276 2 2.2208 11.1613 5.89236 10.8753
279 1 -1.1104 12.3536 7.2272 9.56688
280 1 -1.1104 12.4875 4.13357 12.2085
283 1 -1.1104 12.3842 4.42151 9.29674
285 1 -1.1104 9.79601 7.24726 12.3763
273 1 -1.1104 9.82615 7.18431 9.64211
278 1 -1.1104 12.7794 7.21168 12.3541
245 1 -1.1104 6.67392 7.39337 9.46472
335 2 2.2208 2.57578 20.0772 -0.326575
354 2 2.2208 5.49847 11.4299 -0.513351
9079 2 2.2208 -0.318431 8.35999 8.15338
62 1 -1.1104 1.18731 9.80858 6.75423
78 1 -1.1104 4.10072 9.89708 6.62353
241 2 2.2208 5.50075 11.4043 10.9786
247 1 -1.1104 1.29978 9.81047 12.4665
250 2 2.2208 5.53057 8.7454 8.10959
252 1 -1.1104 1.13158 9.87793 9.47884
257 2 2.2208 2.62017 11.3231 8.15142
259 2 2.2208 2.75339 8.5114 10.963
261 1 -1.1104 4.02578 10.1338 12.3725
263 1 -1.1104 3.83796 9.97007 9.49222
287 1 -1.1104 4.1878 12.7056 12.3838
294 1 -1.1104 0.892326 12.5422 9.47295
299 1 -1.1104 1.50344 12.9111 12.3238
305 1 -1.1104 3.90285 12.7897 9.44198
297 1 -1.1104 6.9325 12.8214 12.3408
249 1 -1.1104 6.87565 10.0631 12.3546
27 2 2.2208 11.1267 17.2303 10.9748
229 2 2.2208 8.09039 17.2542 8.34487
90 1 -1.1104 12.1688 10.1495 6.65606
143 1 -1.1104 12.5004 13.013 6.72262
111 1 -1.1104 6.71193 12.7755 6.68284
65 1 -1.1104 6.81019 10.0741 6.57126
254 1 -1.1104 6.73703 10.2658 9.45599
290 1 -1.1104 6.72187 12.9605 9.4866
81 1 -1.1104 12.3304 12.8852 12.3345
83 1 -1.1104 12.5722 13.0205 9.42063
311 1 -1.1104 9.66059 12.872 9.55175
165 1 -1.1104 9.63776 12.9874 12.2044
264 1 -1.1104 9.61068 9.96766 9.38333
270 1 -1.1104 9.79276 10.2153 12.3573
272 2 2.2208 8.24154 8.73303 10.9509
274 2 2.2208 8.32412 11.4328 7.97226
277 2 2.2208 11.0615 11.4429 10.7985
281 1 -1.1104 12.5044 9.92112 12.2642
282 2 2.2208 11.0352 8.72851 8.17027
284 1 -1.1104 12.4573 10.2113 9.33263
199 1 -1.1104 9.87501 18.3999 12.4308
9165 2 2.2208 -0.306245 14.0785 8.12758
302 1 -1.1104 1.1095 18.774 6.7248
133 1 -1.1104 4.16291 15.5736 6.64541
295 2 2.2208 5.40526 14.1992 8.11253
310 2 2.2208 2.65598 14.178 10.8733
300 2 2.2208 5.5031 17.1148 10.9922
298 1 -1.1104 1.15459 18.3499 12.3672
292 1 -1.1104 1.11422 15.3938 9.39291
301 1 -1.1104 4.3779 18.6152 9.55809
293 2 2.2208 5.372 20.0217 8.0343
308 1 -1.1104 4.07852 15.6751 12.2047
307 1 -1.1104 1.23405 15.6415 12.0399
309 2 2.2208 2.74964 19.9164 11.0036
304 1 -1.1104 3.87508 15.5739 9.56727
303 2 2.2208 2.58985 17.0343 8.13331
286 1 -1.1104 4.09391 18.5265 12.4827
291 1 -1.1104 1.30766 18.4345 9.30995
306 1 -1.1104 6.79794 15.6785 12.518
296 1 -1.1104 6.92697 18.4976 12.321
348 2 2.2208 8.334 3.17646 -0.240966
315 1 -1.1104 9.61467 15.8472 12.3344
314 1 -1.1104 9.53687 15.9144 9.56093
149 1 -1.1104 12.6146 15.6976 6.6143
145 1 -1.1104 12.523 18.6829 6.8194
105 1 -1.1104 12.3897 15.724 12.1816
156 1 -1.1104 9.71043 18.385 6.87435
137 1 -1.1104 12.3203 15.9931 9.38773
82 1 -1.1104 12.8077 18.6539 12.4467
289 1 -1.1104 6.6794 15.7281 9.61944
316 2 2.2208 8.31005 20.0568 10.8716
104 1 -1.1104 12.2343 18.9565 9.46622
136 2 2.2208 10.9914 19.9461 7.97652
112 1 -1.1104 6.7079 18.6356 6.67423
347 2 2.2208 8.31803 -2.58813 -0.332836
346 2 2.2208 11.1997 0.132291 -0.198238
319 2 2.2208 5.54089 -2.60826 13.5671
9178 2 2.2208 -0.310125 2.77441 13.6151
337 2 2.2208 11.1034 19.9864 13.5895
328 2 2.2208 8.30106 5.75062 13.574
321 2 2.2208 5.61423 2.89554 13.462
338 2 2.2208 11.0949 14.3012 13.6021
358 2 2.2208 5.48137 0.13744 16.373
359 1 -1.1104 1.32421 -4.21739 18.011
363 1 -1.1104 1.35777 -4.02739 14.9768
371 1 -1.1104 1.40944 -1.42179 18.1614
373 2 2.2208 5.31433 -2.7965 19.3056
375 1 -1.1104 1.37923 -1.17543 15.375
379 1 -1.1104 4.11081 -4.05649 17.7421
381 2 2.2208 2.61907 0.223599 19.198
382 1 -1.1104 3.99507 -4.52923 14.9688
386 2 2.2208 2.77257 -2.84437 16.4623
388 1 -1.1104 4.07676 -1.10087 17.7043
389 1 -1.1104 4.11081 -1.46792 15.0349
395 2 2.2208 -0.219284 -2.81112 19.4044
394 2 2.2208 -0.233235 0.112546 16.6557
9448 2 2.2208 13.732 3.06326 22.1226
383 1 -1.1104 4.44511 -4.35773 20.5838
364 1 -1.1104 1.02528 -4.12791 20.6567
376 1 -1.1104 1.02832 -1.22114 20.8663
361 1 -1.1104 7.00887 -3.9703 17.7462
367 1 -1.1104 7.03664 -4.09516 14.7663
377 1 -1.1104 6.92156 -1.4172 14.8945
372 1 -1.1104 6.89232 -1.34148 17.8493
401 2 2.2208 10.9206 0.246485 16.5729
402 1 -1.1104 12.6956 -4.01842 17.7887
404 1 -1.1104 12.6919 -4.27687 15.1941
408 1 -1.1104 12.4496 -1.14591 17.6425
409 2 2.2208 11.0825 -2.67421 19.2639
411 1 -1.1104 12.6763 -1.59149 15.0561
413 1 -1.1104 9.78321 -3.87759 17.854
415 2 2.2208 8.35976 -0.0297664 19.2234
416 1 -1.1104 9.80089 -4.25137 15.1974
420 2 2.2208 8.45091 -2.63797 16.2438
422 1 -1.1104 9.60328 -1.28964 17.8915
423 1 -1.1104 9.7006 -1.24082 15.1869
317 2 2.2208 -0.0992576 -2.56179 13.9115
559 1 -1.1104 6.94813 15.5146 23.6149
412 1 -1.1104 12.4131 -1.49433 20.5148
9284 2 2.2208 -0.440404 2.78952 19.3814
365 1 -1.1104 1.17947 1.58928 15.1049
360 1 -1.1104 1.28061 1.6475 18.0236
374 2 2.2208 5.51146 2.86377 19.357
380 1 -1.1104 3.93588 1.61863 17.95
384 1 -1.1104 4.05285 1.30942 15.2195
387 2 2.2208 2.52722 2.75193 16.5161
434 2 2.2208 5.44372 5.63174 16.4779
438 1 -1.1104 0.996937 7.19173 15.142
442 1 -1.1104 0.892666 4.22424 17.927
447 1 -1.1104 1.24142 4.38187 15.0811
456 2 2.2208 2.40264 5.56004 19.3238
461 1 -1.1104 3.94539 4.26886 17.8205
463 1 -1.1104 4.12733 3.8537 14.8783
455 1 -1.1104 3.92047 7.127 17.8654
436 1 -1.1104 1.049 6.98459 17.7315
458 1 -1.1104 4.06202 7.04997 15.2393
330 2 2.2208 8.47025 11.5682 13.7735
344 2 2.2208 -0.130998 0.120478 27.6951
464 1 -1.1104 3.77358 4.13277 20.7656
329 2 2.2208 11.2051 8.66592 13.7422
355 2 2.2208 11.0588 5.86597 27.7217
437 1 -1.1104 7.12724 7.18473 18.0118
325 2 2.2208 2.592 5.63995 13.6826
444 1 -1.1104 6.67283 4.26272 18.0401
451 1 -1.1104 6.956 4.49302 15.1985
362 1 -1.1104 6.94494 1.46878 17.8096
440 1 -1.1104 6.85202 7.36224 15.177
369 1 -1.1104 6.92663 1.58558 15.0429
403 1 -1.1104 12.3067 1.63029 17.7511
406 1 -1.1104 12.3324 1.39575 15.1639
410 2 2.2208 11.113 2.99343 19.4076
414 1 -1.1104 9.48666 1.74638 17.8712
418 1 -1.1104 9.62652 1.53571 15.1678
421 2 2.2208 8.14202 3.02141 16.6562
470 2 2.2208 11.1855 5.83629 16.5546
472 1 -1.1104 12.6967 6.84725 17.8787
473 1 -1.1104 12.6647 7.14538 15.091
475 1 -1.1104 12.328 4.17546 18.0238
478 1 -1.1104 12.5819 4.24641 15.0893
482 1 -1.1104 10.0011 7.24351 17.9753
483 2 2.2208 8.17916 5.64224 19.552
488 1 -1.1104 9.78208 4.5571 17.9997
490 1 -1.1104 9.69082 4.37204 15.0307
485 1 -1.1104 9.71128 7.2827 15.122
9427 2 2.2208 -0.184732 14.1892 19.3917
370 1 -1.1104 6.74497 1.36871 20.506
441 1 -1.1104 6.92717 7.05352 20.9291
491 1 -1.1104 9.87548 4.29222 20.6504
479 1 -1.1104 12.5705 4.27846 20.5869
392 2 2.2208 5.5641 -5.40162 16.6086
9197 2 2.2208 -0.225022 19.8615 13.7789
9356 2 2.2208 -0.174133 8.35572 19.404
435 2 2.2208 5.41316 11.3586 16.4064
443 1 -1.1104 1.47754 9.64869 18.1222
446 2 2.2208 5.64325 8.48783 19.2917
449 1 -1.1104 1.16688 9.93772 15.3947
457 2 2.2208 2.6284 11.1982 19.4139
460 2 2.2208 2.60171 8.49878 16.5704
462 1 -1.1104 3.98673 9.73329 17.8796
465 1 -1.1104 4.13851 9.83007 15.1831
498 1 -1.1104 1.42235 12.7853 17.8618
502 1 -1.1104 1.14512 12.8318 15.1586
518 1 -1.1104 4.04588 12.5626 17.9398
521 1 -1.1104 3.84998 12.8762 15.1627
9322 2 2.2208 -0.0250232 11.3478 16.6955
453 1 -1.1104 6.95369 10.1069 15.125
445 1 -1.1104 6.83538 9.90792 17.7308
500 1 -1.1104 6.95493 12.856 17.7697
506 1 -1.1104 6.69526 12.8811 14.9523
471 2 2.2208 11.1723 11.4231 16.6833
476 1 -1.1104 12.6535 9.86169 17.9016
477 2 2.2208 11.0972 8.53744 19.3048
480 1 -1.1104 12.5298 9.91419 15.1633
484 2 2.2208 8.34098 11.4292 19.3237
487 2 2.2208 8.41 8.77216 16.5941
489 1 -1.1104 9.68742 9.97846 18.04
492 1 -1.1104 9.80321 10.0368 15.1368
534 1 -1.1104 12.4981 12.5393 18.0848
536 1 -1.1104 12.8257 12.6578 15.1688
545 1 -1.1104 9.83701 12.9 18.0025
548 1 -1.1104 10.0116 12.7206 15.0396
336 2 2.2208 5.51179 14.3012 13.7274
493 1 -1.1104 10.0379 9.99411 20.788
469 1 -1.1104 9.75026 15.7735 26.3582
327 2 2.2208 2.56721 11.2323 13.7779
331 2 2.2208 2.54672 17.0252 13.7944
9426 2 2.2208 -0.323848 20.0227 19.4616
9428 2 2.2208 -0.232767 17.0875 16.6753
332 2 2.2208 5.4107 19.8152 13.8541
525 2 2.2208 2.57748 14.2303 16.5174
512 2 2.2208 5.31202 14.2954 19.2598
497 2 2.2208 5.42424 17.1326 16.4591
499 1 -1.1104 1.19555 18.4977 18.0542
504 1 -1.1104 1.11995 18.5987 15.1167
510 1 -1.1104 1.26452 15.566 17.8531
513 2 2.2208 5.40996 19.9477 19.4645
514 1 -1.1104 1.28566 15.5171 15.0474
519 1 -1.1104 4.00297 18.5289 18.1326
520 2 2.2208 2.74796 17.0628 19.3694
523 1 -1.1104 3.84605 18.4949 15.3149
526 2 2.2208 2.4823 19.8941 16.7441
527 1 -1.1104 3.89906 15.6393 17.9615
528 1 -1.1104 3.89694 15.5807 15.073
508 1 -1.1104 6.70541 18.5189 15.3014
529 1 -1.1104 4.19064 15.7812 20.6595
9196 2 2.2208 -0.285835 14.1424 13.81
9189 2 2.2208 -0.345625 8.52335 13.7353
511 1 -1.1104 6.83977 15.572 17.9936
501 1 -1.1104 6.91757 18.4422 17.987
516 1 -1.1104 6.6458 15.7671 15.2253
541 2 2.2208 11.3665 14.2504 19.2704
552 2 2.2208 8.27744 14.2969 16.6926
533 2 2.2208 11.085 17.2069 16.4885
535 1 -1.1104 12.5949 18.5777 17.8056
538 1 -1.1104 12.3987 18.3683 15.0844
540 1 -1.1104 12.6329 15.669 17.7992
542 2 2.2208 11.062 19.9562 19.2574
543 1 -1.1104 12.6039 15.6698 14.8797
546 1 -1.1104 9.62085 18.7029 18.2304
547 2 2.2208 8.42315 17.1852 19.4836
550 1 -1.1104 9.46236 18.5675 15.3524
553 2 2.2208 8.13166 19.8951 16.6313
554 1 -1.1104 9.83485 15.8256 17.9423
555 1 -1.1104 9.62281 15.6949 15.1026
9168 2 2.2208 -0.203333 17.1781 27.8352
353 2 2.2208 2.44696 8.53018 27.7985
539 1 -1.1104 12.4141 18.4322 20.5546
357 2 2.2208 11.1795 11.4597 27.8779
390 1 -1.1104 3.84425 -1.44675 20.5618
561 2 2.2208 5.36161 0.0829731 22.0088
562 1 -1.1104 1.30443 -4.0574 23.4749
566 1 -1.1104 1.19386 -4.17259 26.2283
570 1 -1.1104 1.29512 -1.39971 23.64
572 2 2.2208 5.52595 -2.77789 24.8732
574 1 -1.1104 1.41327 -1.49391 26.5325
576 1 -1.1104 4.23495 -3.78197 23.1369
578 2 2.2208 2.83648 -0.0623166 24.9297
579 1 -1.1104 4.11415 -4.24028 26.2171
581 2 2.2208 2.50047 -2.59816 22.1068
583 1 -1.1104 4.05825 -1.1624 23.4871
584 1 -1.1104 4.12793 -1.40367 26.281
594 2 2.2208 -0.0483459 -2.80094 24.9537
595 2 2.2208 -0.240546 0.0134915 22.4284
577 1 -1.1104 4.12309 1.57777 23.6984
468 1 -1.1104 9.56883 15.6775 23.6253
405 1 -1.1104 12.4773 -4.36647 20.6458
378 1 -1.1104 6.84314 -1.48118 20.5908
564 1 -1.1104 6.82618 -4.14666 23.5014
368 1 -1.1104 7.18543 -4.28073 20.5675
424 1 -1.1104 9.67579 -1.40918 20.6283
568 1 -1.1104 6.94921 -4.11145 26.2451
571 1 -1.1104 6.69479 -1.30673 23.5123
417 1 -1.1104 9.93307 -4.22789 20.7197
575 1 -1.1104 6.90804 -1.1779 26.4154
597 2 2.2208 11.0081 -0.0294549 22.0474
598 1 -1.1104 12.595 -4.0203 23.469
600 1 -1.1104 12.6456 -4.0914 26.3473
602 1 -1.1104 12.5576 -1.19553 23.3251
603 2 2.2208 11.2491 -2.53582 24.8447
605 1 -1.1104 12.6352 -1.20468 26.2215
606 1 -1.1104 9.54536 -4.15354 23.5055
608 2 2.2208 8.18805 0.128094 24.9551
609 1 -1.1104 9.83871 -3.83205 26.1993
611 2 2.2208 8.34006 -2.86638 22.0829
613 1 -1.1104 9.54031 -1.27494 23.7059
614 1 -1.1104 9.75487 -1.06375 26.4756
556 1 -1.1104 9.53948 15.5112 20.7018
551 1 -1.1104 9.76136 18.7274 21.0233
9535 2 2.2208 -0.328161 5.69515 22.1983
366 1 -1.1104 1.01688 1.68569 20.8617
448 1 -1.1104 0.681611 4.35136 20.6723
385 1 -1.1104 3.94574 1.46489 20.6917
459 1 -1.1104 3.96116 7.0789 20.658
439 1 -1.1104 1.18823 7.15253 20.7599
563 1 -1.1104 1.19688 1.39022 23.8704
567 1 -1.1104 1.28813 1.58478 26.6607
573 2 2.2208 5.46834 3.078 25.0455
580 1 -1.1104 3.97784 1.50953 26.3472
582 2 2.2208 2.66279 2.78735 22.2767
626 2 2.2208 5.34384 5.95504 22.314
632 1 -1.1104 1.34595 4.08784 23.6686
637 1 -1.1104 1.22371 4.42338 26.4018
642 2 2.2208 2.62583 5.72397 25.0469
644 1 -1.1104 3.88752 7.14031 26.4135
646 1 -1.1104 4.25419 4.3206 23.5049
648 1 -1.1104 4.08498 4.20841 26.4096
630 1 -1.1104 1.08415 7.3585 26.2887
628 1 -1.1104 0.767969 6.9902 23.4799
641 1 -1.1104 3.77452 7.02346 23.6636
9313 2 2.2208 -0.113151 2.97648 25.0161
452 1 -1.1104 6.84472 4.16607 20.7786
629 1 -1.1104 6.87612 7.32467 23.6821
486 1 -1.1104 9.61804 7.15891 21.0426
474 1 -1.1104 12.3703 7.32925 20.6523
419 1 -1.1104 9.60461 1.41205 20.7838
569 1 -1.1104 6.58707 1.83937 26.4737
631 1 -1.1104 6.60113 7.31056 26.4289
639 1 -1.1104 6.76917 4.74887 26.36
565 1 -1.1104 6.80832 1.42271 23.3417
634 1 -1.1104 7.06707 4.38126 23.5919
407 1 -1.1104 12.224 1.51014 20.9491
599 1 -1.1104 12.5593 1.75431 23.6657
601 1 -1.1104 12.4314 1.41109 26.5663
604 2 2.2208 11.0843 2.93784 25.0713
607 1 -1.1104 9.62846 1.39205 23.4165
610 1 -1.1104 9.45834 1.76352 26.2591
612 2 2.2208 8.33784 2.78874 22.186
658 1 -1.1104 9.7081 4.29457 26.6596
660 1 -1.1104 9.82107 4.2254 23.3978
664 2 2.2208 8.17603 5.98369 25.1868
665 2 2.2208 11.053 5.85673 22.185
669 1 -1.1104 12.6801 4.63064 23.5937
672 1 -1.1104 12.4522 4.42318 26.1578
668 1 -1.1104 12.3089 7.15268 26.3499
667 1 -1.1104 12.7366 7.49582 23.5135
662 1 -1.1104 9.56853 7.177 26.7171
674 1 -1.1104 9.92524 7.09869 23.7612
333 2 2.2208 2.53614 14.4551 27.7284
9285 2 2.2208 -0.164944 11.4896 22.145
503 1 -1.1104 1.24568 12.8564 20.5826
450 1 -1.1104 1.08636 10.072 20.8818
522 1 -1.1104 4.09458 12.973 20.6577
466 1 -1.1104 4.2307 9.79266 20.7127
627 2 2.2208 5.44896 11.3043 22.0764
633 1 -1.1104 1.47353 9.92616 23.494
636 2 2.2208 5.396 8.67194 25.0172
638 1 -1.1104 0.958733 10.2437 26.2583
643 2 2.2208 2.34513 11.4308 25.0065
645 2 2.2208 2.54859 8.51212 22.0325
647 1 -1.1104 4.10568 9.84946 23.4013
649 1 -1.1104 3.67902 10.0263 26.531
560 1 -1.1104 4.03271 12.9697 26.3751
596 1 -1.1104 1.02464 12.8936 23.5365
625 1 -1.1104 1.232 12.872 26.3257
675 1 -1.1104 3.74472 12.4356 23.6427
9286 2 2.2208 -0.191603 8.79419 24.8884
531 2 2.2208 2.77236 14.376 22.1304
617 2 2.2208 5.40236 14.2858 25.0289
537 1 -1.1104 12.6102 12.749 20.6402
454 1 -1.1104 6.91156 10.1172 20.6952
549 1 -1.1104 9.91709 12.8403 20.8399
640 1 -1.1104 6.73572 10.0172 26.4889
635 1 -1.1104 6.87363 9.98769 23.7006
616 1 -1.1104 6.69164 12.6613 23.6063
507 1 -1.1104 7.16174 12.9544 20.6071
481 1 -1.1104 12.5077 10.1317 20.6931
676 1 -1.1104 6.91431 12.9675 26.4944
657 1 -1.1104 9.72292 10.0705 26.3581
659 1 -1.1104 9.68783 9.93498 23.5939
661 2 2.2208 8.33366 8.58016 22.2369
663 2 2.2208 8.23105 11.6602 25.0053
666 2 2.2208 11.1655 11.4534 22.1441
670 1 -1.1104 12.4217 10.1698 23.7748
671 2 2.2208 11.0307 8.73604 25.0075
673 1 -1.1104 12.5485 9.9455 26.4686
656 1 -1.1104 12.6301 12.7311 26.661
431 1 -1.1104 9.74256 12.8828 26.3969
494 1 -1.1104 9.62791 12.8429 23.6603
654 1 -1.1104 12.4599 13.0069 23.548
433 2 2.2208 8.2328 14.2184 22.2174
495 2 2.2208 -0.30369 19.981 24.8372
9241 2 2.2208 -0.244953 17.073 22.2217
505 1 -1.1104 1.04627 18.8563 20.7395
515 1 -1.1104 1.20183 15.7567 20.7576
524 1 -1.1104 4.18716 18.4356 20.7986
593 2 2.2208 5.39317 17.1416 22.2173
586 2 2.2208 2.70125 17.3291 25.0838
587 1 -1.1104 4.11962 18.7325 26.5109
622 2 2.2208 5.55885 20.2396 25.1359
615 1 -1.1104 1.06583 18.3394 23.7436
651 1 -1.1104 1.25617 18.4624 26.5406
650 1 -1.1104 1.30116 15.7056 26.2506
677 1 -1.1104 3.86468 18.5299 23.5014
532 2 2.2208 2.60943 19.8963 22.1047
557 1 -1.1104 4.25865 15.3332 23.4651
558 1 -1.1104 1.56873 16.0096 23.473
585 1 -1.1104 4.04822 15.7341 26.3854
9242 2 2.2208 -0.304808 14.3819 25.045
467 2 2.2208 8.2034 19.9554 22.3294
399 2 2.2208 8.33739 17.0318 24.9507
530 2 2.2208 11.1537 19.8477 24.8537
624 1 -1.1104 6.6275 18.5382 23.9931
432 1 -1.1104 9.83218 18.5477 26.62
652 1 -1.1104 6.90313 15.6575 26.4406
679 1 -1.1104 12.5076 15.773 23.5292
496 1 -1.1104 12.6715 15.8409 26.2493
678 1 -1.1104 12.6212 18.6786 26.2494
680 2 2.2208 11.0889 14.4739 24.9735
653 2 2.2208 11.0466 16.9324 22.1734
517 1 -1.1104 6.72305 15.8469 20.5139
509 1 -1.1104 7.03504 18.5628 21.0914
400 1 -1.1104 7.12749 18.5191 26.4529
655 1 -1.1104 12.6794 18.6645 23.4111
398 1 -1.1104 9.64327 18.4761 23.7502
544 1 -1.1104 12.5232 15.7205 20.7788
339 2 2.2208 8.43728 17.1306 13.7922
341 2 2.2208 5.42705 0.228339 27.7022
323 2 2.2208 11.1698 -2.78195 13.7707
326 2 2.2208 5.53504 8.65146 13.8647
343 2 2.2208 2.68384 2.88843 27.6615
320 2 2.2208 2.55689 0.227267 13.8345
681 2 2.2208 5.46477 22.7316 5.40767
683 1 -1.1104 0.888604 24.0914 1.15268
684 1 -1.1104 0.925742 24.2145 3.92565
685 1 -1.1104 1.13259 21.4417 1.12201
687 2 2.2208 5.32609 25.5557 2.35034
688 1 -1.1104 1.04357 21.2024 3.87092
690 1 -1.1104 3.88956 24.2047 1.25812
691 2 2.2208 2.63059 22.6841 2.58736
693 1 -1.1104 3.91516 24.1131 3.96697
694 2 2.2208 2.48531 25.6268 5.41488
695 1 -1.1104 4.204 21.3661 1.32392
697 1 -1.1104 4.05819 21.3041 4.09967
702 1 -1.1104 6.73203 24.1024 1.14707
696 1 -1.1104 4.01331 26.8854 1.03258
686 1 -1.1104 0.889642 27.0348 0.781401
689 1 -1.1104 1.24562 26.8697 3.7886
1039 2 2.2208 8.03829 31.2523 -0.0484288
972 2 2.2208 -0.491285 39.6174 11.0162
1020 2 2.2208 5.37251 22.6871 -0.0615937
1034 2 2.2208 2.52523 31.2289 -0.307246
706 1 -1.1104 6.91595 21.6531 3.83678
704 1 -1.1104 7.0981 21.1697 1.25297
703 1 -1.1104 6.55153 24.304 4.06398
708 2 2.2208 11.1666 22.7469 5.46522
710 1 -1.1104 12.7269 24.3617 1.16952
711 1 -1.1104 12.5167 24.4526 3.89221
712 1 -1.1104 12.5504 21.4856 1.1205
714 2 2.2208 11.2448 25.6315 2.55078
715 1 -1.1104 12.5786 21.6387 4.0153
717 1 -1.1104 9.94357 24.1204 0.89315
718 2 2.2208 8.17088 22.8036 2.50334
720 1 -1.1104 9.49223 24.5099 3.61723
721 2 2.2208 8.15844 25.6072 5.40832
722 1 -1.1104 9.80495 21.2779 0.819658
724 1 -1.1104 9.75957 21.5093 3.94768
725 1 -1.1104 9.52779 26.9481 3.96246
716 1 -1.1104 12.527 27.286 3.70101
723 1 -1.1104 9.61732 26.7611 1.39783
707 1 -1.1104 6.65886 27.0886 3.80227
713 1 -1.1104 12.6394 27.2692 1.05814
705 1 -1.1104 6.81308 26.9411 0.854155
9741 2 2.2208 -0.394364 28.4269 11.0244
999 2 2.2208 5.46872 25.5316 13.7669
826 1 -1.1104 6.84917 21.3202 6.80097
1025 2 2.2208 11.2083 22.7575 -0.38537
698 1 -1.1104 3.87393 27.4146 3.99165
682 2 2.2208 5.46589 28.3851 5.29737
692 2 2.2208 2.5354 28.4185 2.43217
730 1 -1.1104 1.06561 29.6477 0.887336
733 1 -1.1104 1.15119 29.6215 4.01798
736 1 -1.1104 1.3797 32.5435 1.11684
737 2 2.2208 5.26557 31.4372 2.60733
739 1 -1.1104 0.840782 32.5845 3.82033
741 1 -1.1104 3.83498 29.7154 0.946972
744 1 -1.1104 3.75973 30.2744 3.64105
746 2 2.2208 2.33508 31.2845 5.27657
748 1 -1.1104 3.97296 32.589 1.21068
749 1 -1.1104 3.78101 33.0552 3.94017
753 1 -1.1104 6.66859 29.8911 1.03614
1009 2 2.2208 10.8415 31.2658 13.7227
1037 2 2.2208 13.5325 37.0105 -0.41635
1022 2 2.2208 5.44676 28.3641 -0.437753
1035 2 2.2208 5.0927 34.1027 -0.419394
754 1 -1.1104 6.72836 29.9888 3.87543
740 1 -1.1104 6.72129 32.7916 4.20212
755 1 -1.1104 6.75551 32.8566 1.25898
709 2 2.2208 10.9987 28.4467 5.13385
719 2 2.2208 8.38937 28.3273 2.65177
757 1 -1.1104 12.3658 29.8643 1.36783
759 1 -1.1104 12.4437 30.0914 3.97006
761 1 -1.1104 12.2638 32.9231 1.14293
762 2 2.2208 11.1418 31.369 2.54381
764 1 -1.1104 12.3075 32.835 3.96579
765 1 -1.1104 9.49714 29.8475 1.26816
768 1 -1.1104 9.62883 29.8514 3.88676
770 2 2.2208 7.97268 31.3079 5.24154
772 1 -1.1104 9.48852 32.7182 1.09169
773 1 -1.1104 9.63079 32.6483 3.86384
10408 3 0 11.4985 46.5621 11.5544
9706 2 2.2208 13.5896 28.5771 8.0244
729 2 2.2208 5.12332 34.2101 5.23283
731 1 -1.1104 0.943511 35.6327 1.14245
734 1 -1.1104 0.900246 35.585 3.64256
738 2 2.2208 5.28484 37.0605 2.65805
742 1 -1.1104 3.64539 35.7167 1.09747
743 2 2.2208 2.37306 34.2651 2.52069
745 1 -1.1104 3.90273 35.7791 3.86534
747 2 2.2208 2.32996 37.0951 5.32327
775 2 2.2208 5.01368 39.8455 5.40988
781 1 -1.1104 0.952884 38.3086 0.993069
786 1 -1.1104 0.865717 38.4074 3.82865
791 2 2.2208 2.39744 39.9886 2.54162
795 1 -1.1104 3.84196 38.4446 1.14595
797 1 -1.1104 3.67617 38.5189 3.95
1026 2 2.2208 8.2781 25.4355 -0.300037
1040 2 2.2208 10.8528 34.1568 -0.214517
752 2 2.2208 -0.153585 31.2313 2.34573
994 2 2.2208 13.5292 45.1652 8.03549
9743 2 2.2208 -0.272922 22.7627 10.8209
9861 2 2.2208 -0.306275 28.3258 5.34608
1032 2 2.2208 5.14664 39.6327 -0.25948
735 1 -1.1104 6.60655 35.5805 4.03833
788 1 -1.1104 6.42618 38.3715 4.02419
783 1 -1.1104 6.67288 38.3733 1.19003
774 2 2.2208 13.6105 34.186 2.55299
732 1 -1.1104 6.5586 35.7388 0.921134
756 2 2.2208 10.7577 34.2711 5.23645
758 1 -1.1104 12.1569 35.6755 1.02409
760 1 -1.1104 12.1569 35.6474 3.92458
763 2 2.2208 10.9054 37.0032 2.51974