ITEM: TIMESTEP
100000
ITEM: NUMBER OF ATOMS
17700
ITEM: BOX BOUNDS pp pp pp
-4.5527166058149005e-01 2.7795271660581474e+01
-5.3029433376756678e+00 3.3338294333767220e+02
-4.3842233841320105e-01 2.7778422338412785e+01
ITEM: ATOMS id type q x y z
1 2 2.2208 5.47925 0.431757 5.19889
2 1 -1.1104 0.594655 -3.70438 1.15452
6 1 -1.1104 1.15871 -3.5246 3.69788
10 1 -1.1104 1.11531 -0.745381 0.757367
12 2 2.2208 5.03411 -2.33763 2.30848
14 1 -1.1104 1.18704 -0.697091 3.51806
16 1 -1.1104 3.75883 -3.75825 0.87331
18 2 2.2208 2.43675 0.669208 2.37252
19 1 -1.1104 3.90293 -3.93343 3.7035
21 2 2.2208 2.53074 -2.06052 5.06231
23 1 -1.1104 3.82469 -0.85298 0.895306
24 1 -1.1104 4.05995 -0.926375 3.59842
15 1 -1.1104 6.72976 -0.933617 3.93528
8 1 -1.1104 6.63916 -3.80675 3.74246
174 1 -1.1104 4.01721 -0.982539 6.73119
170 1 -1.1104 1.23616 -0.919 6.45551
11 1 -1.1104 6.52586 -0.949051 0.956779
9196 2 2.2208 -0.416027 14.6743 13.5357
28 2 2.2208 2.37043 -5.01634 2.30989
171 1 -1.1104 6.78761 -0.86954 6.72565
9163 2 2.2208 -0.170899 20.2017 8.03693
9157 2 2.2208 -0.386368 14.6599 2.48059
4 1 -1.1104 6.71565 -3.67386 0.996328
31 2 2.2208 11.0545 0.610679 5.33422
32 1 -1.1104 12.4428 -3.74465 0.818483
34 1 -1.1104 12.3537 -3.70851 3.71133
36 1 -1.1104 12.3225 -0.791774 1.06345
37 2 2.2208 11.0459 -2.22779 2.35031
39 1 -1.1104 12.431 -0.727379 3.96068
40 1 -1.1104 9.42578 -3.66718 0.669615
42 2 2.2208 7.99639 0.277793 2.26572
43 1 -1.1104 9.44977 -3.51448 3.4776
45 2 2.2208 8.00118 -2.25456 5.05487
47 1 -1.1104 9.45952 -0.799919 0.882205
48 1 -1.1104 9.63461 -0.925768 3.65648
210 1 -1.1104 9.42412 -0.842992 6.64521
352 2 2.2208 5.37445 6.08277 -0.395619
9072 2 2.2208 -0.344313 11.8032 10.9233
355 2 2.2208 11.0102 6.08157 -0.438965
29 2 2.2208 5.36144 -5.1198 5.15929
428 2 2.2208 8.12467 -5.02228 13.5329
231 2 2.2208 8.24204 -4.93976 8.04967
3 1 -1.1104 1.11384 2.2102 1.2686
7 1 -1.1104 1.25295 1.96075 3.84386
13 2 2.2208 5.37132 3.38676 2.45459
17 1 -1.1104 3.78766 1.85956 0.914869
20 1 -1.1104 3.88532 2.13576 3.80267
22 2 2.2208 2.69 3.51552 5.15926
54 2 2.2208 5.58696 6.22686 5.32645
58 1 -1.1104 1.30284 7.44601 3.87181
60 1 -1.1104 0.873858 4.74273 0.811325
67 1 -1.1104 1.47525 4.66609 3.66277
72 2 2.2208 2.70344 6.18483 2.60972
76 1 -1.1104 3.70718 4.98881 0.883544
79 1 -1.1104 4.11128 4.77062 3.7248
74 1 -1.1104 4.24424 7.58471 3.94889
56 1 -1.1104 1.28503 7.68144 1.05382
59 1 -1.1104 7.05668 7.69192 3.91978
9 1 -1.1104 6.90482 1.93367 3.4377
69 1 -1.1104 7.17287 4.91996 3.75519
235 1 -1.1104 6.95738 7.61663 6.73476
71 1 -1.1104 4.06613 7.80739 1.05624
5 1 -1.1104 6.85774 1.72404 0.782054
9165 2 2.2208 -0.217394 14.7133 8.02875
237 1 -1.1104 6.85319 4.82648 6.86174
167 1 -1.1104 1.04426 1.8903 6.49076
337 2 2.2208 11.1144 20.1787 13.5376
232 2 2.2208 11.0712 -5.15369 10.8749
63 1 -1.1104 6.45978 4.47293 0.939823
202 2 2.2208 2.58401 -4.84578 7.79717
33 1 -1.1104 12.3069 1.90928 0.842357
35 1 -1.1104 12.5044 2.19994 3.93318
38 2 2.2208 11.1797 3.27642 2.31164
41 1 -1.1104 9.40646 1.82897 1.10011
44 1 -1.1104 9.7083 1.95741 3.74623
46 2 2.2208 8.29347 3.38594 5.19625
84 2 2.2208 11.0669 6.18893 5.14906
88 1 -1.1104 12.2936 4.56932 0.872903
92 1 -1.1104 12.7357 4.73198 3.60262
95 2 2.2208 8.3856 6.26417 2.33761
99 1 -1.1104 9.60698 4.59371 0.906792
102 1 -1.1104 9.86805 4.71724 3.72723
94 1 -1.1104 9.35247 7.62055 0.924972
97 1 -1.1104 9.69154 7.59111 3.81369
87 1 -1.1104 12.5434 7.52682 3.98792
86 1 -1.1104 12.2491 7.27833 1.07093
209 1 -1.1104 9.68722 1.87312 6.65001
266 1 -1.1104 12.4659 4.76359 6.60684
206 1 -1.1104 12.4164 1.91162 6.82912
169 1 -1.1104 6.72644 1.75512 6.43632
9164 2 2.2208 -0.262811 17.5477 10.9176
229 2 2.2208 8.07127 17.314 8.09753
9079 2 2.2208 -0.365884 9.04766 8.07005
55 2 2.2208 5.57114 11.6311 5.17008
61 1 -1.1104 1.54089 10.4432 0.911686
66 2 2.2208 5.67759 9.01683 2.46461
68 1 -1.1104 1.43613 10.3117 3.81985
73 2 2.2208 2.70345 11.8252 2.31799
75 2 2.2208 2.71176 8.90497 5.2494
77 1 -1.1104 4.51547 10.6121 1.22125
80 1 -1.1104 4.03945 10.3178 3.89465
107 1 -1.1104 1.11468 13.0465 1.10332
113 1 -1.1104 1.16553 13.2132 3.67551
123 1 -1.1104 4.21838 13.2002 1.03647
128 1 -1.1104 4.10187 13.2134 3.7218
64 1 -1.1104 7.05396 10.0246 0.907316
70 1 -1.1104 7.08 10.3891 3.77167
115 1 -1.1104 6.72546 13.1581 3.79701
108 1 -1.1104 1.22827 13.3558 6.59748
124 1 -1.1104 4.06693 12.9661 6.77973
343 2 2.2208 2.50471 3.35316 -0.338679
57 1 -1.1104 6.7149 7.25163 1.26561
110 1 -1.1104 6.94858 13.1995 1.00841
85 2 2.2208 11.0957 11.766 5.1103
89 1 -1.1104 12.5064 10.201 0.693411
91 2 2.2208 11.0428 9.06564 2.50764
93 1 -1.1104 12.5764 10.2309 3.54931
96 2 2.2208 8.2225 11.9147 2.35607
98 2 2.2208 8.32286 9.03818 5.18231
100 1 -1.1104 9.87655 10.3829 1.128
103 1 -1.1104 9.89393 10.3027 3.8192
142 1 -1.1104 12.4113 13.2411 0.556213
146 1 -1.1104 12.4278 13.2113 3.76406
153 1 -1.1104 9.50641 13.2102 0.828719
158 1 -1.1104 9.61769 13.1586 3.89425
333 2 2.2208 2.48839 14.5534 -0.425979
143 1 -1.1104 12.4913 13.2227 6.4838
101 1 -1.1104 9.70121 10.332 6.7104
154 1 -1.1104 9.81551 13.1728 6.60723
329 2 2.2208 11.0447 9.08332 13.6597
51 2 2.2208 8.12805 -4.99925 2.1255
30 2 2.2208 -0.345278 -5.03835 5.17998
332 2 2.2208 5.28642 20.315 13.6621
314 1 -1.1104 9.74396 15.9403 9.66186
119 2 2.2208 5.39998 14.6373 2.4749
130 2 2.2208 2.73157 14.6031 5.18796
106 2 2.2208 5.33871 17.4264 5.03224
109 1 -1.1104 1.13816 18.6769 1.08893
114 1 -1.1104 1.09988 18.8199 3.81839
116 1 -1.1104 1.14749 15.9505 1.13233
120 2 2.2208 5.27516 20.132 2.29081
121 1 -1.1104 1.15299 15.905 3.87027
125 1 -1.1104 3.99919 18.6346 1.06824
127 2 2.2208 2.70448 17.2482 2.42807
129 1 -1.1104 3.91598 18.9091 3.61898
131 2 2.2208 2.5106 20.4372 5.1276
132 1 -1.1104 4.07682 16.0712 0.981342
134 1 -1.1104 3.99083 16.0361 3.9107
140 1 -1.1104 6.81112 15.9048 1.01552
139 1 -1.1104 6.75363 18.6173 3.70927
122 1 -1.1104 6.86905 15.8841 3.90379
133 1 -1.1104 4.10427 15.7939 6.70266
112 1 -1.1104 6.77045 18.6106 6.60014
302 1 -1.1104 1.10357 18.9957 6.91098
316 2 2.2208 8.1175 20.1247 10.8869
117 1 -1.1104 1.18787 16.0648 6.72995
126 1 -1.1104 3.8725 18.8373 6.57777
138 1 -1.1104 6.69016 18.889 1.02644
200 2 2.2208 -0.311636 -2.36969 7.95706
160 2 2.2208 8.22981 14.6876 5.42199
150 2 2.2208 10.9493 14.4665 2.21758
141 2 2.2208 11.1126 17.3288 5.12257
144 1 -1.1104 12.3954 18.789 1.01583
147 1 -1.1104 12.1945 19.0342 3.89856
148 1 -1.1104 12.2421 16.0253 1.11803
151 2 2.2208 10.7119 20.1634 2.285
152 1 -1.1104 12.5958 16.1705 3.70601
155 1 -1.1104 9.59196 19.0573 0.881296
157 2 2.2208 8.17235 17.2865 2.34453
159 1 -1.1104 9.52901 18.6097 4.00851
161 2 2.2208 8.12255 20.0403 5.34688
162 1 -1.1104 9.64127 16.1181 0.592226
164 1 -1.1104 9.6519 15.8458 3.57067
105 1 -1.1104 12.423 16.3084 12.3739
52 2 2.2208 10.9454 -5.0521 5.32646
118 1 -1.1104 6.85557 16.0347 6.77366
156 1 -1.1104 9.6432 18.7495 6.72934
172 1 -1.1104 3.97303 -3.54072 6.58703
166 1 -1.1104 0.946169 -3.41652 6.37863
175 2 2.2208 5.31131 0.400351 10.8214
176 1 -1.1104 1.00259 -3.84123 12.2079
180 1 -1.1104 0.954836 -3.57765 9.28613
184 1 -1.1104 1.08398 -0.84823 12.3101
186 2 2.2208 5.37915 -2.34436 8.14997
188 1 -1.1104 0.927017 -0.947092 9.24666
190 1 -1.1104 3.6662 -3.85907 12.1059
192 2 2.2208 2.57911 0.511705 7.84476
193 1 -1.1104 4.02614 -3.60475 9.43795
195 2 2.2208 2.21076 -2.27904 10.7276
197 1 -1.1104 4.05241 -0.987194 12.3541
198 1 -1.1104 3.79398 -1.10777 9.67148
189 1 -1.1104 6.76536 -0.649032 9.44025
178 1 -1.1104 6.82267 -3.65828 12.1971
185 1 -1.1104 6.76795 -0.749344 12.4774
168 1 -1.1104 6.57808 -3.62109 6.57109
8927 2 2.2208 13.6515 20.3603 5.1041
313 2 2.2208 8.26872 14.7513 11.0551
205 1 -1.1104 12.302 -3.69434 6.56979
208 1 -1.1104 9.44368 -3.53447 6.60965
182 1 -1.1104 6.86592 -3.573 9.5466
207 1 -1.1104 12.4124 -0.960111 6.61412
211 2 2.2208 11.0366 0.395544 10.7893
212 1 -1.1104 12.429 -3.66188 12.3271
214 1 -1.1104 12.7562 -3.83787 9.54715
216 1 -1.1104 12.7096 -0.930327 12.2135
217 2 2.2208 10.9643 -2.15306 7.92913
219 1 -1.1104 12.4255 -1.04236 9.43492
220 1 -1.1104 9.7016 -3.56553 12.2056
222 2 2.2208 8.21378 0.630196 7.98455
223 1 -1.1104 9.88223 -3.66725 9.33647
225 2 2.2208 8.26282 -2.22274 11.0064
227 1 -1.1104 9.71353 -0.941339 12.2339
228 1 -1.1104 9.5249 -0.826315 9.6252
9161 2 2.2208 -0.24649 3.22511 8.0925
104 1 -1.1104 12.5548 18.8446 9.47814
203 2 2.2208 5.26414 -5.02628 10.796
238 1 -1.1104 4.14129 7.56045 6.56522
173 1 -1.1104 3.96267 1.82309 6.61636
239 1 -1.1104 4.11139 4.80578 6.53585
236 1 -1.1104 1.21147 4.8085 6.6025
234 1 -1.1104 1.30003 7.59611 6.66693
177 1 -1.1104 0.98641 1.76584 12.2981
181 1 -1.1104 1.38175 1.82945 9.50322
187 2 2.2208 5.41615 3.28832 7.92434
191 1 -1.1104 3.84376 1.71703 12.3248
194 1 -1.1104 4.27585 1.86521 9.43588
196 2 2.2208 2.67485 3.1778 10.9195
240 2 2.2208 5.61032 6.08718 10.8387
246 1 -1.1104 1.18225 4.59825 12.2364
251 1 -1.1104 1.11557 4.7085 9.45107
256 2 2.2208 2.61942 6.12608 8.06367
260 1 -1.1104 4.05794 4.61659 12.1585
262 1 -1.1104 3.82967 4.57175 9.25999
244 1 -1.1104 1.24405 7.41606 9.32672
255 1 -1.1104 4.07435 7.57859 12.1703
258 1 -1.1104 4.04755 7.27833 9.4066
242 1 -1.1104 1.25175 7.5946 12.3334
179 1 -1.1104 6.69819 1.97528 12.2464
183 1 -1.1104 6.99695 2.09818 9.36163
245 1 -1.1104 7.03354 7.55303 9.50849
243 1 -1.1104 6.81641 7.52987 12.2764
9159 2 2.2208 -0.13337 17.4936 5.33512
25 2 2.2208 -0.194884 -2.10239 2.39072
267 1 -1.1104 10.0175 7.84743 6.45539
253 1 -1.1104 6.73531 4.78804 9.55976
248 1 -1.1104 7.00258 4.6731 12.2306
265 1 -1.1104 12.5189 7.37202 6.82202
269 1 -1.1104 9.64586 4.83938 6.37206
213 1 -1.1104 12.5658 1.9017 12.5427
215 1 -1.1104 12.639 1.57133 9.57723
218 2 2.2208 11.0817 3.31542 8.14884
221 1 -1.1104 9.57289 1.67358 11.9932
224 1 -1.1104 9.90311 1.95155 9.41082
226 2 2.2208 8.20332 3.25877 10.7789
268 1 -1.1104 9.65283 4.51415 9.33507
271 1 -1.1104 9.74437 4.75112 12.1338
275 2 2.2208 8.30005 6.15872 8.06408
276 2 2.2208 11.1558 6.19055 10.852
279 1 -1.1104 12.5245 7.73503 9.63184
280 1 -1.1104 12.5566 4.67279 12.4202
283 1 -1.1104 12.4092 4.86437 9.47855
285 1 -1.1104 9.68986 7.80585 12.1979
273 1 -1.1104 9.83833 7.23711 9.22047
278 1 -1.1104 12.5322 7.74399 12.3395
26 2 2.2208 -0.353172 0.612094 5.22738
9080 2 2.2208 -0.30829 5.95228 10.9341
145 1 -1.1104 12.3493 18.6523 6.62763
65 1 -1.1104 6.8243 10.6109 6.67003
201 2 2.2208 -0.310557 0.432628 10.8974
78 1 -1.1104 3.97048 10.3817 6.79195
111 1 -1.1104 7.05231 13.2273 6.7073
62 1 -1.1104 1.1896 10.4176 6.63568
241 2 2.2208 5.25073 11.6556 10.8608
247 1 -1.1104 1.27371 10.3787 12.2409
250 2 2.2208 5.41213 8.99068 8.10296
252 1 -1.1104 0.923309 10.359 9.42512
257 2 2.2208 2.51508 11.7532 7.98223
259 2 2.2208 2.42696 8.83757 10.817
261 1 -1.1104 4.06151 10.2925 12.3608
263 1 -1.1104 3.73498 10.3372 9.35409
287 1 -1.1104 3.88973 13.1373 12.3707
294 1 -1.1104 0.834094 13.0166 9.41646
299 1 -1.1104 1.02065 13.203 12.237
305 1 -1.1104 3.85023 13.077 9.49261
297 1 -1.1104 6.80526 13.2835 12.3322
290 1 -1.1104 6.76816 12.9831 9.37066
249 1 -1.1104 6.68411 10.4542 12.2213
137 1 -1.1104 12.421 16.0577 9.56323
348 2 2.2208 8.20303 3.26817 -0.36228
90 1 -1.1104 12.5874 10.4155 6.45997
335 2 2.2208 2.47614 20.2018 -0.304278
254 1 -1.1104 6.59457 10.2368 9.67828
328 2 2.2208 8.2034 5.99869 13.6587
81 1 -1.1104 12.1978 13.4341 12.2425
83 1 -1.1104 12.3707 13.3195 9.48352
311 1 -1.1104 9.62199 13.139 9.5866
165 1 -1.1104 9.45426 13.2772 12.2082
264 1 -1.1104 9.46409 10.2367 9.39558
270 1 -1.1104 9.4973 10.5495 12.0087
272 2 2.2208 8.18762 9.05795 10.8477
274 2 2.2208 8.34628 11.9211 8.09241
277 2 2.2208 11.0577 11.8922 10.9186
281 1 -1.1104 12.4538 10.6974 12.3245
282 2 2.2208 11.2293 9.00224 7.95234
284 1 -1.1104 12.5665 10.2872 9.3611
163 1 -1.1104 9.6843 16.0182 6.7207
9154 2 2.2208 -0.144229 11.9708 5.18817
9158 2 2.2208 -0.289071 20.1497 2.51226
344 2 2.2208 -0.306224 0.702501 -0.339039
310 2 2.2208 2.58836 14.4435 10.8887
296 1 -1.1104 6.75725 18.9158 12.6121
289 1 -1.1104 6.87251 15.9068 9.665
288 1 -1.1104 6.65599 18.6087 9.30776
295 2 2.2208 5.44452 14.4149 8.26115
300 2 2.2208 5.25064 17.4112 10.8395
298 1 -1.1104 1.24009 18.8329 12.4025
292 1 -1.1104 1.41511 15.9103 9.44448
301 1 -1.1104 3.85532 18.7256 9.44588
293 2 2.2208 5.24134 20.2089 8.11157
308 1 -1.1104 3.78386 16.0813 12.3103
307 1 -1.1104 0.893847 16.0147 12.1226
309 2 2.2208 2.54531 20.2189 10.7183
304 1 -1.1104 4.15632 15.9551 9.3993
303 2 2.2208 2.50622 17.3968 7.86498
286 1 -1.1104 3.94333 18.8587 12.2112
291 1 -1.1104 1.0407 18.7806 9.52204
306 1 -1.1104 6.67476 16.1062 12.5029
27 2 2.2208 10.9534 17.5069 10.83
136 2 2.2208 10.9439 20.168 7.94971
135 2 2.2208 11.0382 14.6718 8.05832
315 1 -1.1104 9.63973 16.3377 12.3961
82 1 -1.1104 12.666 18.9073 12.2881
312 1 -1.1104 9.58369 18.7213 9.37658
199 1 -1.1104 9.55693 18.8984 12.3652
149 1 -1.1104 12.7025 15.9839 6.67736
347 2 2.2208 8.29582 -2.22042 -0.42421
9173 2 2.2208 -0.311771 6.2065 -0.31676
9153 2 2.2208 -0.0131726 9.08224 2.40312
9152 2 2.2208 -0.211871 6.41965 5.19335
323 2 2.2208 11.0737 -2.22213 13.545
9149 2 2.2208 -0.25669 3.5779 2.38306
322 2 2.2208 8.37415 0.577435 13.6158
326 2 2.2208 5.43071 8.9631 13.6368
9176 2 2.2208 -0.162215 11.6394 -0.357141
9189 2 2.2208 -0.272525 8.82982 13.5536
590 2 2.2208 5.25486 -5.07951 -0.416183
330 2 2.2208 8.07835 11.8956 13.6306
342 2 2.2208 2.47827 -2.1086 -0.375824
358 2 2.2208 5.40518 0.737411 16.5753
359 1 -1.1104 1.34686 -3.88879 17.747
363 1 -1.1104 1.19558 -3.69216 15.0375
371 1 -1.1104 0.838624 -1.02572 17.8395
373 2 2.2208 5.42331 -2.23117 19.2384
375 1 -1.1104 1.13472 -0.974602 15.0569
379 1 -1.1104 4.0739 -3.71179 18.0058
381 2 2.2208 2.49786 0.501473 19.2765
382 1 -1.1104 4.04535 -3.57464 15.1161
386 2 2.2208 2.52479 -2.1728 16.3982
388 1 -1.1104 3.74821 -0.944475 17.8925
389 1 -1.1104 4.07674 -0.884689 15.2105
372 1 -1.1104 6.49955 -0.723859 18.0242
377 1 -1.1104 6.91214 -0.859608 15.2617
361 1 -1.1104 6.63255 -3.68848 17.8529
367 1 -1.1104 7.04498 -3.83803 15.0556
364 1 -1.1104 0.933228 -3.70393 20.814
9388 2 2.2208 13.6366 20.1898 16.4324
9286 2 2.2208 -0.149176 8.9154 25.1281
9426 2 2.2208 -0.353283 20.2696 19.3911
620 2 2.2208 10.898 -5.07433 22.0114
591 2 2.2208 5.2683 -4.99597 22.0663
336 2 2.2208 5.45295 14.6284 13.6854
401 2 2.2208 11.138 0.572301 16.5302
402 1 -1.1104 12.5828 -3.72909 17.8224
404 1 -1.1104 12.3889 -3.61437 15.0768
408 1 -1.1104 12.3262 -0.882135 18.0788
409 2 2.2208 10.9707 -2.39224 19.2967
411 1 -1.1104 12.62 -0.883944 15.1809
413 1 -1.1104 9.49668 -3.91145 17.7375
415 2 2.2208 8.29548 0.468592 19.3934
416 1 -1.1104 9.68942 -3.40114 15.2452
420 2 2.2208 8.37721 -2.25143 16.5418
422 1 -1.1104 9.54029 -0.838723 17.9447
423 1 -1.1104 9.92143 -0.702215 15.0252
424 1 -1.1104 9.52577 -0.943598 20.6132
621 2 2.2208 8.13698 -5.14597 25.2353
426 2 2.2208 10.8626 -5.11631 16.3554
393 2 2.2208 2.48635 -5.06603 19.3061
317 2 2.2208 -0.329336 -2.28138 13.7001
365 1 -1.1104 1.20879 2.01715 15.2269
360 1 -1.1104 1.20577 1.94632 17.9699
374 2 2.2208 5.45359 3.32251 19.4494
380 1 -1.1104 4.07295 2.12279 18.0369
384 1 -1.1104 4.06976 2.00083 15.1139
387 2 2.2208 2.56631 3.41333 16.466
434 2 2.2208 5.31798 6.22454 16.6084
438 1 -1.1104 0.939103 7.41929 15.1015
442 1 -1.1104 1.25769 4.6628 17.9319
447 1 -1.1104 1.25926 4.71354 15.0534
456 2 2.2208 2.42976 6.02495 19.4077
461 1 -1.1104 4.03552 4.72172 17.8865
463 1 -1.1104 4.05124 4.86301 15.062
362 1 -1.1104 6.78283 2.14534 17.8575
458 1 -1.1104 3.90478 7.69364 14.9708
448 1 -1.1104 1.09139 4.86219 20.7787
444 1 -1.1104 6.76494 4.9093 17.7516
451 1 -1.1104 6.66666 4.70977 15.1008
441 1 -1.1104 6.70202 7.44512 20.7662
440 1 -1.1104 6.77944 7.68009 15.1715
369 1 -1.1104 6.84397 2.04338 14.9269
452 1 -1.1104 6.95862 4.66091 20.7881
353 2 2.2208 2.68323 8.95927 27.6962
403 1 -1.1104 12.3376 1.94689 17.7851
406 1 -1.1104 12.4853 2.04547 15.197
410 2 2.2208 10.9976 3.33299 19.1696
414 1 -1.1104 9.53677 1.69811 17.8129
418 1 -1.1104 9.7613 2.05937 14.9837
421 2 2.2208 8.09139 3.58406 16.6302
470 2 2.2208 10.9972 6.24056 16.4415
475 1 -1.1104 12.2995 4.81875 18.0753
478 1 -1.1104 12.3893 4.63074 15.1827
483 2 2.2208 8.0992 6.16569 19.1855
488 1 -1.1104 9.59036 4.79587 17.8496
490 1 -1.1104 9.56691 4.83848 15.1305
485 1 -1.1104 9.68466 7.45278 14.8086
473 1 -1.1104 12.417 7.53213 15.1861
472 1 -1.1104 12.3814 7.49827 17.9178
495 2 2.2208 -0.332447 20.2713 24.9048
407 1 -1.1104 12.4367 1.83629 20.5996
325 2 2.2208 2.61442 6.15651 13.6545
9317 2 2.2208 13.5456 11.5958 19.3267
455 1 -1.1104 3.87814 7.59947 17.9276
436 1 -1.1104 1.14362 7.3831 18.15
437 1 -1.1104 6.75241 7.63053 18.0783
435 2 2.2208 5.29207 11.8297 16.6802
443 1 -1.1104 1.18087 10.3906 17.9606
446 2 2.2208 5.32478 9.03 19.3336
449 1 -1.1104 1.10299 10.3567 15.0533
457 2 2.2208 2.53149 11.8804 19.4356
460 2 2.2208 2.56151 8.94342 16.5883
462 1 -1.1104 3.96209 10.4836 18.1094
465 1 -1.1104 3.78086 10.5268 15.316
498 1 -1.1104 1.09303 13.2305 18.1749
502 1 -1.1104 0.887262 13.2253 15.0136
518 1 -1.1104 3.81788 13.3527 17.7351
521 1 -1.1104 3.98363 13.2782 15.2047
506 1 -1.1104 6.89668 13.1717 15.1608
466 1 -1.1104 4.11162 10.4156 20.7917
500 1 -1.1104 6.56017 13.1067 18.1112
453 1 -1.1104 6.69556 10.3816 15.1632
503 1 -1.1104 1.23496 13.1998 20.8681
482 1 -1.1104 9.49385 7.65091 17.6612
445 1 -1.1104 6.59182 10.3084 17.8655
471 2 2.2208 10.859 11.8434 16.3959
476 1 -1.1104 12.3558 10.2504 17.7046
477 2 2.2208 10.9333 8.94997 19.2085
480 1 -1.1104 12.2963 10.4658 15.2283
484 2 2.2208 7.93258 11.8317 19.3214
487 2 2.2208 8.31199 8.98283 16.2586
489 1 -1.1104 9.55901 10.3823 17.7652
492 1 -1.1104 9.49516 10.4533 14.8371
534 1 -1.1104 12.1685 13.1063 18.0204
536 1 -1.1104 12.4829 13.3082 15.2502
545 1 -1.1104 9.4997 13.0759 17.8905
548 1 -1.1104 9.32153 13.1967 15.2316
9427 2 2.2208 -0.270104 14.7965 19.4665
537 1 -1.1104 12.5081 13.0359 20.9253
392 2 2.2208 5.40034 -5.10249 16.4302
394 2 2.2208 -0.321248 0.6455 16.6318
512 2 2.2208 5.36654 14.504 19.4676
525 2 2.2208 2.34251 14.4753 16.4392
497 2 2.2208 5.40488 17.342 16.7576
499 1 -1.1104 1.20234 18.8812 18.1721
504 1 -1.1104 0.90452 18.81 15.3461
510 1 -1.1104 1.08661 16.0385 17.9495
513 2 2.2208 5.24566 20.1922 19.2722
514 1 -1.1104 1.3437 16.1212 15.1439
519 1 -1.1104 4.04014 18.8133 17.9639
520 2 2.2208 2.5271 17.4199 19.481
523 1 -1.1104 3.76765 18.8161 15.1903
526 2 2.2208 2.45989 20.2682 16.6116
527 1 -1.1104 4.03567 16.0374 18.3348
528 1 -1.1104 4.08769 16.0681 15.1146
501 1 -1.1104 6.84555 18.877 18.1485
505 1 -1.1104 1.04437 18.8475 20.8493
524 1 -1.1104 3.71227 18.9273 20.69
516 1 -1.1104 6.65183 16.0248 15.2471
517 1 -1.1104 6.67584 15.9276 20.6424
515 1 -1.1104 1.07361 16.1596 20.8046
592 2 2.2208 2.36086 -5.17327 25.1061
9284 2 2.2208 -0.336873 3.288 19.3316
319 2 2.2208 5.53107 -2.15801 13.8071
511 1 -1.1104 6.85252 15.8664 18.0415
508 1 -1.1104 6.63377 18.7975 15.2482
9241 2 2.2208 -0.339016 17.4153 22.1513
541 2 2.2208 10.9958 14.5637 19.3244
552 2 2.2208 8.05613 14.5907 16.6742
533 2 2.2208 10.8922 17.2146 16.4924
535 1 -1.1104 12.2129 18.859 18.1998
538 1 -1.1104 12.3267 18.6081 15.262
540 1 -1.1104 12.4183 16.0513 17.7982
542 2 2.2208 10.848 20.1014 19.3261
543 1 -1.1104 12.3203 16.0541 15.19
546 1 -1.1104 9.58552 18.776 17.8844
547 2 2.2208 8.09811 17.2062 19.5725
550 1 -1.1104 9.55076 18.7519 15.2128
553 2 2.2208 8.0299 20.3004 16.5975
554 1 -1.1104 9.54276 16.0055 17.9652
555 1 -1.1104 9.49519 15.8082 15.0892
391 2 2.2208 -0.321974 -5.23974 16.4486
551 1 -1.1104 9.47674 18.6969 20.6543
655 1 -1.1104 12.4036 18.8397 23.6127
539 1 -1.1104 12.3086 18.6786 20.7935
544 1 -1.1104 12.1991 15.8853 20.5458
368 1 -1.1104 6.73876 -3.66605 20.7316
378 1 -1.1104 6.63493 -0.799969 20.737
9242 2 2.2208 -0.248264 14.3174 24.9495
9285 2 2.2208 -0.375776 11.8678 22.1913
433 2 2.2208 8.0671 14.5668 22.1684
376 1 -1.1104 0.905524 -0.668998 20.6044
383 1 -1.1104 3.97934 -3.63412 20.7632
390 1 -1.1104 3.77211 -0.849935 20.7871
561 2 2.2208 5.29169 0.547733 22.085
562 1 -1.1104 0.953087 -3.75537 23.3986
566 1 -1.1104 1.04197 -3.80543 26.5791
570 1 -1.1104 1.38874 -0.743671 23.5506
572 2 2.2208 5.29549 -2.315 24.7107
574 1 -1.1104 1.00486 -0.935491 26.4448
576 1 -1.1104 3.70574 -3.69704 23.662
578 2 2.2208 2.78156 0.590308 24.9712
579 1 -1.1104 4.04358 -3.59219 26.5102
581 2 2.2208 2.4562 -2.38692 22.0247
583 1 -1.1104 4.04481 -0.878318 23.4724
584 1 -1.1104 4.0986 -0.897588 26.1521
571 1 -1.1104 6.72139 -0.88702 23.5688
575 1 -1.1104 6.73687 -0.925172 26.5675
405 1 -1.1104 12.3321 -3.50808 20.6584
417 1 -1.1104 9.57309 -3.79426 20.4462
412 1 -1.1104 12.2911 -0.97307 20.8488
334 2 2.2208 5.18854 17.423 27.6301
346 2 2.2208 11.0844 0.550739 27.5063
568 1 -1.1104 6.90403 -3.57613 26.1495
564 1 -1.1104 6.67507 -3.92716 23.4429
9356 2 2.2208 -0.367378 8.88529 19.2473
597 2 2.2208 10.952 0.369654 22.0357
598 1 -1.1104 12.3535 -3.74803 23.3476
600 1 -1.1104 12.7165 -3.71504 26.4311
602 1 -1.1104 12.3355 -0.893595 23.5846
603 2 2.2208 11.1794 -2.25921 24.9462
605 1 -1.1104 12.4222 -0.8312 26.2894
606 1 -1.1104 9.49509 -3.84957 23.3845
608 2 2.2208 7.97764 0.398036 24.8622
609 1 -1.1104 9.80121 -3.67766 26.2247
611 2 2.2208 8.13341 -2.3639 22.1093
613 1 -1.1104 9.50129 -1.04354 23.3522
614 1 -1.1104 9.55924 -0.912792 26.1968
350 2 2.2208 10.983 17.5869 27.6827
467 2 2.2208 8.19748 20.2301 22.2566
321 2 2.2208 5.49266 3.21112 13.7511
385 1 -1.1104 3.98293 1.89568 20.8023
464 1 -1.1104 3.91393 4.75002 20.6767
459 1 -1.1104 3.74624 7.60622 20.609
439 1 -1.1104 0.839666 7.68903 20.8078
366 1 -1.1104 1.30722 2.09408 20.7631
577 1 -1.1104 3.96466 1.89463 23.8135
563 1 -1.1104 1.25535 1.85862 23.5616
567 1 -1.1104 1.2645 1.97269 26.4263
573 2 2.2208 5.31505 3.35909 25.1163
580 1 -1.1104 4.15029 1.90471 26.4998
582 2 2.2208 2.59908 3.44092 22.12
626 2 2.2208 5.47737 6.19281 22.0939
632 1 -1.1104 1.09525 4.83143 23.4293
637 1 -1.1104 0.934045 4.79759 26.4281
642 2 2.2208 2.59335 6.28277 24.8291
646 1 -1.1104 4.00373 4.7988 23.5982
648 1 -1.1104 3.88068 4.716 26.219
630 1 -1.1104 1.13046 7.53616 26.396
641 1 -1.1104 3.88768 7.66329 23.6074
628 1 -1.1104 1.13643 7.58485 23.6296
644 1 -1.1104 3.8213 7.40091 26.3868
634 1 -1.1104 6.74165 4.69256 23.5237
629 1 -1.1104 6.68065 7.49073 23.5834
631 1 -1.1104 6.80761 7.699 26.3753
639 1 -1.1104 6.82733 4.80714 26.3588
565 1 -1.1104 6.64436 1.96524 23.7107
370 1 -1.1104 6.71159 1.8425 20.8035
486 1 -1.1104 9.58453 7.38477 20.5759
419 1 -1.1104 9.54586 1.89429 20.6689
474 1 -1.1104 12.6073 7.51047 20.5837
356 2 2.2208 8.24346 8.98655 27.7361
398 1 -1.1104 9.5261 18.9195 23.6317
569 1 -1.1104 6.7609 1.96148 26.2054
491 1 -1.1104 9.81838 4.66225 20.5368
479 1 -1.1104 12.6403 4.61929 20.7174
599 1 -1.1104 12.477 1.78869 23.6119
601 1 -1.1104 12.3056 2.11912 26.2779
604 2 2.2208 10.8318 3.33848 24.9357
607 1 -1.1104 9.58005 1.79689 23.5179
610 1 -1.1104 9.39795 1.96421 26.3051
612 2 2.2208 8.2036 3.41405 22.2766
658 1 -1.1104 9.62835 4.90014 26.3539
660 1 -1.1104 9.67716 4.8294 23.4487
664 2 2.2208 8.21645 6.13098 24.9791
665 2 2.2208 11.105 6.27298 22.0068
669 1 -1.1104 12.2491 4.59036 23.5036
672 1 -1.1104 12.5003 4.85922 26.3213
662 1 -1.1104 9.71468 7.7156 26.1939
668 1 -1.1104 12.5345 7.58521 26.3037
667 1 -1.1104 12.3944 7.46197 23.5191
674 1 -1.1104 9.57517 7.65077 23.521
679 1 -1.1104 12.5257 16.0692 23.4284
450 1 -1.1104 1.02002 10.4696 20.8895
507 1 -1.1104 6.69683 13.1008 20.6902
522 1 -1.1104 4.12369 13.2854 20.9072
454 1 -1.1104 6.80409 10.3221 20.7667
627 2 2.2208 5.38145 11.7671 22.1275
633 1 -1.1104 1.11876 10.4275 23.7811
636 2 2.2208 5.34776 9.00292 25.1463
638 1 -1.1104 1.35426 10.3448 26.5025
643 2 2.2208 2.64397 11.6206 24.8756
645 2 2.2208 2.48574 8.8685 22.1391
647 1 -1.1104 3.88841 10.2439 23.7061
649 1 -1.1104 4.11541 10.4533 26.6238
560 1 -1.1104 4.11343 13.2828 26.3324
596 1 -1.1104 1.13164 13.1042 23.4716
625 1 -1.1104 1.22235 13.0884 26.4094
675 1 -1.1104 4.021 13.1687 23.5931
640 1 -1.1104 6.89409 10.2234 26.4016
676 1 -1.1104 6.84188 13.2062 26.2908
616 1 -1.1104 6.717 13.239 23.4846
635 1 -1.1104 6.69465 10.2737 23.4928
481 1 -1.1104 12.3244 10.3238 20.5334
549 1 -1.1104 9.39269 13.151 20.8572
493 1 -1.1104 9.58103 10.2518 20.7513
657 1 -1.1104 9.75783 10.4753 26.3647
659 1 -1.1104 9.49064 10.3453 23.4115
661 2 2.2208 8.15176 8.8694 22.0857
663 2 2.2208 8.10552 11.6932 24.9101
666 2 2.2208 11.09 11.9327 22.1962
670 1 -1.1104 12.49 10.2416 23.1353
671 2 2.2208 11.0478 8.97562 24.7851
673 1 -1.1104 12.6214 10.2886 25.969
656 1 -1.1104 12.3458 12.8025 26.0773
431 1 -1.1104 9.58785 13.1468 26.2135
494 1 -1.1104 9.61971 13.2272 23.7048
654 1 -1.1104 12.4948 13.1937 23.539
530 2 2.2208 11.0902 20.3579 24.9028
529 1 -1.1104 3.82703 16.1055 20.9658
509 1 -1.1104 6.56857 18.5986 20.7782
395 2 2.2208 -0.342242 -2.36036 19.4688
531 2 2.2208 2.38063 14.6743 22.3754
617 2 2.2208 5.48921 14.5619 24.8666
468 1 -1.1104 9.61938 16.1234 23.6691
652 1 -1.1104 6.58894 16.1965 26.3313
624 1 -1.1104 6.93515 18.7104 23.4229
593 2 2.2208 5.3596 17.3922 22.2193
586 2 2.2208 2.4389 17.4367 24.9242
587 1 -1.1104 3.71479 18.6148 26.4608
622 2 2.2208 5.23323 20.4945 25.1002
615 1 -1.1104 1.23888 18.915 23.5858
651 1 -1.1104 0.85554 18.698 26.2826
650 1 -1.1104 1.12134 15.7857 26.423
677 1 -1.1104 4.02125 18.6904 23.6319
532 2 2.2208 2.32256 20.1816 22.1767
557 1 -1.1104 3.82694 15.9242 23.4658
558 1 -1.1104 0.959424 16.0072 23.4682
585 1 -1.1104 3.83034 15.9001 26.1355
400 1 -1.1104 6.76349 18.8299 26.1747
559 1 -1.1104 6.8641 15.8617 23.5105
341 2 2.2208 5.48029 0.505419 27.6127
469 1 -1.1104 9.37234 16.1713 26.2219
496 1 -1.1104 12.3452 16.0469 26.4247
320 2 2.2208 2.45729 0.383501 13.6846
9322 2 2.2208 -0.250519 11.907 16.3547
556 1 -1.1104 9.63069 15.7274 21.0145
678 1 -1.1104 12.4252 18.5288 26.2308
653 2 2.2208 10.918 17.29 22.1834
399 2 2.2208 8.17736 17.5664 24.8452
680 2 2.2208 10.8294 14.601 24.9922
432 1 -1.1104 9.74263 18.9445 26.1798
9178 2 2.2208 -0.336765 3.30265 13.7285
9313 2 2.2208 -0.27847 3.43314 25.0787
9357 2 2.2208 -0.214425 6.06508 16.6866
324 2 2.2208 11.1508 3.28159 13.7747
9428 2 2.2208 -0.263236 17.3923 16.5698
595 2 2.2208 -0.199607 0.606475 22.3136
331 2 2.2208 2.61065 17.4286 13.7931
9168 2 2.2208 -0.433869 17.4486 27.7885
619 2 2.2208 11.072 -5.03144 27.6773
9197 2 2.2208 -0.262593 20.0668 13.8777
397 2 2.2208 2.50465 -5.24918 13.8337
327 2 2.2208 2.43572 11.7 13.7242
339 2 2.2208 8.13003 17.5532 13.8327
351 2 2.2208 8.15127 20.1887 27.6964
345 2 2.2208 8.12587 14.7702 27.6197
357 2 2.2208 11.0744 11.6592 27.7179
354 2 2.2208 5.49451 11.8673 27.7443
338 2 2.2208 10.8656 14.7481 13.8043
681 2 2.2208 5.17467 23.0199 5.03937
683 1 -1.1104 0.803837 24.4094 0.813549
684 1 -1.1104 0.932705 24.5739 3.63398
685 1 -1.1104 1.22678 21.3694 1.21159
687 2 2.2208 5.36801 25.8525 2.42679
688 1 -1.1104 1.09153 21.7857 3.76883
690 1 -1.1104 3.8015 24.3288 0.795438
691 2 2.2208 2.36487 23.0305 2.22935
693 1 -1.1104 3.88779 24.4451 3.52668
694 2 2.2208 2.43251 26.0356 5.14783
695 1 -1.1104 3.86774 21.4894 0.734885
697 1 -1.1104 3.95314 21.7502 3.53403
703 1 -1.1104 6.53028 24.4458 3.72471
704 1 -1.1104 6.82778 21.4735 1.23215
696 1 -1.1104 3.83147 27.1343 0.77584
828 1 -1.1104 3.83261 24.3389 6.48917
824 1 -1.1104 1.25514 21.8071 6.6349
707 1 -1.1104 6.55253 27.1954 3.91168
823 1 -1.1104 6.52668 24.2413 6.55161
822 1 -1.1104 0.975568 24.5627 6.66967
829 1 -1.1104 4.01612 21.585 6.31874
830 1 -1.1104 3.5255 27.1486 6.60531
800 2 2.2208 -0.275523 45.4223 5.18425
9864 2 2.2208 13.6103 25.7187 5.36327
705 1 -1.1104 6.63008 27.1152 1.02743
827 1 -1.1104 6.70315 27.1575 6.61713
706 1 -1.1104 6.63947 21.2649 4.08243
702 1 -1.1104 6.78744 24.3725 1.09828
708 2 2.2208 10.8441 22.9805 5.28359
710 1 -1.1104 12.2192 24.4828 1.15023
711 1 -1.1104 12.1595 24.3413 3.92868
712 1 -1.1104 12.3346 21.5839 0.791227
714 2 2.2208 10.7895 25.7094 2.64274
715 1 -1.1104 12.45 21.739 3.82833
717 1 -1.1104 9.4778 24.3103 1.36538
718 2 2.2208 8.14513 22.8445 2.58023
720 1 -1.1104 9.2163 24.3132 4.07096
721 2 2.2208 7.983 25.7511 5.29991
722 1 -1.1104 9.57674 21.6624 0.946558
724 1 -1.1104 9.51903 21.4966 3.80607
857 1 -1.1104 12.3264 27.3232 6.64066
725 1 -1.1104 9.34746 27.155 3.74862
716 1 -1.1104 12.1724 27.2249 4.05927
1042 2 2.2208 5.01568 45.5607 -0.097033
1561 1 -1.1104 0.737449 46.7476 12.4002
859 1 -1.1104 9.46644 21.5205 6.47779
855 1 -1.1104 12.4073 24.6011 6.88875
860 1 -1.1104 9.58565 27.102 6.61938
973 1 -1.1104 9.1229 44.0969 9.29367
991 2 2.2208 13.4902 37.1816 5.36724
698 1 -1.1104 3.97039 27.1918 3.72825
686 1 -1.1104 0.943631 27.1316 0.739211
689 1 -1.1104 1.04844 27.177 3.59255
682 2 2.2208 4.94208 28.5879 5.17786
692 2 2.2208 2.64749 28.7687 2.23713
730 1 -1.1104 1.11912 29.901 0.96626
733 1 -1.1104 1.19096 29.8624 3.8438
736 1 -1.1104 1.24006 33.0209 0.842682
737 2 2.2208 5.39574 31.3638 2.33321
739 1 -1.1104 0.924071 32.7581 3.7441
741 1 -1.1104 3.9246 30.1229 0.726811
744 1 -1.1104 3.92526 29.9121 3.62789
746 2 2.2208 2.3786 31.6253 5.23626
748 1 -1.1104 3.93873 32.9259 1.00246
749 1 -1.1104 3.8536 32.7084 3.90656
754 1 -1.1104 6.4513 29.8319 3.66523
753 1 -1.1104 6.60745 29.8516 0.881274
750 2 2.2208 -0.371828 34.1233 5.22058
884 1 -1.1104 6.40143 32.5693 6.45042
958 1 -1.1104 6.7233 41.3168 9.68658
1020 2 2.2208 5.29344 23.1244 -0.232435
723 1 -1.1104 9.57049 27.2221 1.09376
713 1 -1.1104 12.3523 27.3954 1.01674
1006 2 2.2208 2.31839 34.1848 13.6149
740 1 -1.1104 6.83757 32.8381 3.93086
755 1 -1.1104 6.86565 32.6089 1.05439
709 2 2.2208 10.8048 28.6778 5.35649
719 2 2.2208 7.92665 28.6858 2.4127
757 1 -1.1104 12.1481 30.2014 0.726033
759 1 -1.1104 12.2447 29.8458 3.79463
761 1 -1.1104 12.3446 32.9821 1.09904
762 2 2.2208 10.7874 31.4688 2.28384
764 1 -1.1104 12.3086 32.701 3.84216
765 1 -1.1104 9.39997 30.0593 0.928445
768 1 -1.1104 9.40234 30.1061 3.67229
770 2 2.2208 8.042 31.3492 5.16408
772 1 -1.1104 9.59761 32.9943 0.920966
773 1 -1.1104 9.54858 32.8373 3.72149
918 1 -1.1104 9.48349 32.737 6.65842
915 1 -1.1104 12.3598 32.9249 6.73611
1557 1 -1.1104 0.922482 46.7718 6.55228