ITEM: TIMESTEP
316
ITEM: NUMBER OF ATOMS
17688
ITEM: BOX BOUNDS pp pp pp
-2.7717828229332220e-01 2.7617178282293317e+01
-3.4472205766305355e+00 3.3152722057663055e+02
-2.7717827830221448e-01 2.7617178278302212e+01
ITEM: ATOMS id type q x y z
1 2 2.2208 5.27912 2.14025 5.31669
2 1 -1.1104 1.09194 -2.04778 1.13191
3 1 -1.1104 1.09586 3.53444 1.13246
4 1 -1.1104 1.09202 -2.04773 3.92178
5 1 -1.1104 1.09593 3.53451 3.92232
6 1 -1.1104 1.09396 0.74333 1.1326
7 2 2.2208 5.27715 -0.650905 2.52696
8 2 2.2208 5.28112 4.93127 2.52754
9 1 -1.1104 1.09388 0.743392 3.92163
10 1 -1.1104 3.88147 -2.04775 1.13232
11 1 -1.1104 3.88541 3.5344 1.13288
12 2 2.2208 2.48965 2.1402 2.52725
13 1 -1.1104 3.88141 -2.04773 3.92136
14 1 -1.1104 3.88533 3.53446 3.9219
15 2 2.2208 2.48768 -0.650855 5.31642
16 2 2.2208 2.49164 4.93139 5.317
17 1 -1.1104 3.88335 0.743334 1.13216
18 1 -1.1104 3.88342 0.743372 3.92204
33 1 -1.1104 6.67282 0.743372 3.92162
336 2 2.2208 2.48769 -0.65094 -0.262478
328 2 2.2208 2.49164 4.93125 -0.261909
28 1 -1.1104 6.67291 0.743327 1.1326
32 1 -1.1104 6.67094 -2.04773 3.92175
31 1 -1.1104 6.67481 3.5344 1.13243
34 1 -1.1104 6.67089 -2.04776 1.13189
24 1 -1.1104 3.88147 -2.0477 6.71122
174 1 -1.1104 1.09194 -2.04768 6.71081
327 2 2.2208 5.27913 2.14015 -0.2622
35 1 -1.1104 6.67488 3.53447 3.92233
36 2 2.2208 10.858 2.14032 5.31671
37 1 -1.1104 12.2498 -2.04779 1.13188
38 1 -1.1104 12.2537 3.53451 1.13245
39 1 -1.1104 12.2498 -2.04774 3.92177
40 1 -1.1104 12.2538 3.53461 3.92237
41 1 -1.1104 12.2518 0.743374 1.13261
42 2 2.2208 10.8561 -0.650895 2.52697
43 1 -1.1104 12.2517 0.743434 3.92163
44 1 -1.1104 9.46042 -2.04778 1.1323
45 1 -1.1104 9.46435 3.53446 1.13289
46 2 2.2208 8.06859 2.14021 2.52725
47 1 -1.1104 9.46034 -2.04774 3.92135
48 1 -1.1104 9.46427 3.53451 3.92191
49 2 2.2208 8.0666 -0.650881 5.31641
50 2 2.2208 8.0706 4.93138 5.31701
51 1 -1.1104 9.4623 0.743353 1.13216
52 1 -1.1104 9.46236 0.743387 3.92205
53 2 2.2208 10.8601 4.93139 2.52755
203 1 -1.1104 12.2537 3.53469 6.71137
199 2 2.2208 13.6455 -0.65084 5.31644
8885 2 2.2208 13.658 16.0975 10.8973
337 2 2.2208 8.0706 4.93125 -0.26192
9002 2 2.2208 13.6602 18.8871 2.52944
87 2 2.2208 13.6475 2.1403 2.52728
330 2 2.2208 13.6455 -0.650917 -0.262482
333 2 2.2208 13.6495 4.93143 -0.261904
326 2 2.2208 8.06663 -0.650944 -0.262487
331 2 2.2208 5.28315 7.72226 -0.261618
62 2 2.2208 5.28317 7.72244 5.31733
63 2 2.2208 5.28736 13.3045 5.31804
64 1 -1.1104 1.09991 9.11659 1.1331
65 1 -1.1104 1.09998 9.11672 3.92299
66 1 -1.1104 1.09795 6.32553 1.13318
67 1 -1.1104 1.10205 11.9076 1.13383
68 2 2.2208 5.28525 10.5133 2.5282
69 1 -1.1104 1.09786 6.32562 3.92223
70 1 -1.1104 1.10194 11.9078 3.92292
71 1 -1.1104 3.88947 9.11647 1.1335
72 2 2.2208 2.49367 7.72238 2.52787
73 2 2.2208 2.49782 13.3044 2.52857
74 1 -1.1104 3.88938 9.11657 3.92254
75 2 2.2208 2.49574 10.5136 5.31767
76 1 -1.1104 3.88734 6.32546 1.13276
77 1 -1.1104 3.89146 11.9074 1.13341
78 1 -1.1104 3.88743 6.32553 3.92266
79 1 -1.1104 3.89159 11.9076 3.92333
91 1 -1.1104 6.6789 9.11643 1.13305
88 1 -1.1104 6.6769 6.32544 1.13318
92 1 -1.1104 6.67683 6.32553 3.92221
89 1 -1.1104 6.681 11.9075 3.9229
81 1 -1.1104 6.68108 11.9074 1.13388
82 1 -1.1104 3.89146 11.9078 6.71235
334 2 2.2208 2.49571 10.5133 -0.261284
90 1 -1.1104 6.67901 9.11657 3.923
228 1 -1.1104 3.8895 9.11672 6.71245
84 1 -1.1104 6.67891 9.11674 6.71198
172 1 -1.1104 12.2623 14.7001 9.50272
318 2 2.2208 5.28734 13.3041 -0.260935
60 2 2.2208 13.6537 10.514 5.31769
324 2 2.2208 8.07473 10.5133 -0.261289
93 2 2.2208 10.8621 7.72262 5.31734
94 2 2.2208 10.8664 13.3049 5.31808
95 1 -1.1104 12.2578 9.11674 1.13304
96 1 -1.1104 12.258 9.1169 3.92304
97 1 -1.1104 12.2558 6.32565 1.13321
98 1 -1.1104 12.2601 11.9078 1.13391
99 2 2.2208 10.8642 10.5136 2.52822
100 1 -1.1104 12.2558 6.32577 3.92221
101 1 -1.1104 12.26 11.908 3.92288
102 1 -1.1104 9.46848 9.11657 1.13353
103 2 2.2208 8.07265 7.72236 2.52787
104 2 2.2208 8.07689 13.3043 2.52858
105 1 -1.1104 9.4684 9.11668 3.92254
106 2 2.2208 8.07478 10.5136 5.31769
107 1 -1.1104 9.4663 6.32554 1.13274
108 1 -1.1104 9.47049 11.9075 1.1334
109 1 -1.1104 9.4664 6.32561 3.92268
110 1 -1.1104 9.47064 11.9077 3.92342
335 2 2.2208 10.8621 7.72241 -0.261612
8948 2 2.2208 13.6558 13.3049 2.5286
320 2 2.2208 10.8664 13.3045 -0.260934
112 1 -1.1104 6.67693 6.32566 6.7121
332 2 2.2208 13.6537 10.5137 -0.261285
117 2 2.2208 5.29171 18.8862 5.31886
118 1 -1.1104 1.10405 14.6985 1.13381
119 1 -1.1104 1.10832 20.2802 1.13462
120 1 -1.1104 1.10416 14.6988 3.92369
121 1 -1.1104 1.10845 20.2806 3.92449
122 1 -1.1104 1.10629 17.4894 1.13459
123 2 2.2208 5.28951 16.0951 2.52894
124 2 2.2208 5.29396 21.6766 2.52981
125 1 -1.1104 1.10612 17.4897 3.92372
126 1 -1.1104 3.89369 14.6983 1.13422
127 1 -1.1104 3.89803 20.2798 1.13505
128 2 2.2208 2.50212 18.8861 2.52937
129 1 -1.1104 3.89357 14.6985 3.92329
130 1 -1.1104 3.89788 20.2801 3.92412
131 2 2.2208 2.49993 16.0956 5.31842
132 2 2.2208 2.5043 21.6773 5.31926
133 1 -1.1104 3.89571 17.4891 1.13418
134 1 -1.1104 3.89586 17.4893 3.92412
144 1 -1.1104 6.68326 14.6984 3.92374
145 1 -1.1104 6.68543 17.489 1.13466
137 1 -1.1104 6.68312 14.6987 6.71272
325 2 2.2208 2.50434 21.6766 -0.259723
322 2 2.2208 5.29169 18.8857 -0.260141
143 1 -1.1104 6.68313 14.6982 1.13374
142 1 -1.1104 6.6853 17.4892 3.92366
136 1 -1.1104 1.10624 17.4901 6.71353
323 2 2.2208 2.49995 16.0951 -0.260555
135 1 -1.1104 6.68771 20.28 3.92462
141 1 -1.1104 6.68751 20.2797 1.13456
146 2 2.2208 10.8708 18.887 5.31895
147 1 -1.1104 12.2621 14.6988 1.13374
148 1 -1.1104 12.2666 20.2806 1.13452
149 1 -1.1104 12.2623 14.6991 3.92384
150 1 -1.1104 12.2669 20.2812 3.9248
151 1 -1.1104 12.2645 17.4898 1.13472
152 2 2.2208 10.8686 16.0956 2.529
153 2 2.2208 10.8731 21.6773 2.52988
154 1 -1.1104 12.2643 17.4902 3.9237
155 1 -1.1104 9.47277 14.6985 1.13429
156 1 -1.1104 9.47726 20.28 1.13513
157 2 2.2208 8.08128 18.886 2.52939
158 1 -1.1104 9.47265 14.6987 3.92327
159 1 -1.1104 9.47712 20.2804 3.92408
160 2 2.2208 8.07908 16.0956 5.31845
161 2 2.2208 8.08361 21.6772 5.31935
162 1 -1.1104 9.47486 17.4893 1.13412
163 1 -1.1104 9.47504 17.4896 3.92424
317 2 2.2208 8.07904 16.0951 -0.260551
319 2 2.2208 10.8708 18.8863 -0.260169
9186 2 2.2208 13.6625 21.6777 -0.2598
171 1 -1.1104 12.2666 20.282 6.71365
165 1 -1.1104 12.2646 17.4908 6.71381
321 2 2.2208 8.08353 21.6765 -0.259706
255 2 2.2208 13.6475 2.14043 8.10617
20 1 -1.1104 3.88335 0.743435 6.71105
9147 2 2.2208 13.658 16.0965 5.31852
23 1 -1.1104 3.8854 3.53455 6.71178
25 1 -1.1104 1.09394 0.743465 6.71149
175 1 -1.1104 1.09584 3.53461 6.71135
176 2 2.2208 5.27912 2.14035 10.8956
177 1 -1.1104 1.09193 -2.04771 12.2897
178 1 -1.1104 1.09587 3.53468 12.2902
179 1 -1.1104 1.092 -2.04769 9.50066
180 1 -1.1104 1.09592 3.53467 9.50121
181 1 -1.1104 1.09394 0.743484 12.2903
182 2 2.2208 5.27715 -0.650845 8.10585
183 2 2.2208 5.28112 4.93145 8.10643
184 1 -1.1104 1.09389 0.743489 9.50051
185 1 -1.1104 3.88146 -2.04774 12.2901
186 1 -1.1104 3.8854 3.53464 12.2906
187 2 2.2208 2.48964 2.14033 8.10614
188 1 -1.1104 3.88142 -2.04771 9.50024
189 1 -1.1104 3.88533 3.53462 9.50078
190 2 2.2208 2.48769 -0.650834 10.8953
191 2 2.2208 2.49163 4.93153 10.8959
192 1 -1.1104 3.88336 0.743461 12.2899
193 1 -1.1104 3.88343 0.743461 9.50093
58 1 -1.1104 6.67087 -2.04772 6.7108
196 1 -1.1104 6.67483 3.53464 12.2902
197 1 -1.1104 6.67094 -2.04773 9.50065
198 1 -1.1104 6.67282 0.743438 9.50049
86 2 2.2208 13.6495 4.93159 5.31703
85 2 2.2208 13.6516 7.72266 2.52787
315 2 2.2208 8.08364 21.6785 10.898
201 1 -1.1104 6.6748 3.53455 6.71136
54 2 2.2208 13.6455 -0.65082 10.8953
204 1 -1.1104 6.67089 -2.04775 12.2896
194 1 -1.1104 6.6749 3.53461 9.50123
195 1 -1.1104 6.67289 0.743454 12.2903
252 2 2.2208 13.6495 4.93177 10.8959
26 1 -1.1104 6.6729 0.743411 6.71148
202 1 -1.1104 9.46038 -2.04773 6.71121
205 1 -1.1104 9.46229 0.743434 6.71107
57 1 -1.1104 9.46435 3.5346 6.7118
56 1 -1.1104 12.2498 -2.04773 6.7108
59 1 -1.1104 12.2518 0.743474 6.71152
206 2 2.2208 10.858 2.14039 10.8956
207 1 -1.1104 12.2498 -2.04777 12.2896
208 1 -1.1104 12.2537 3.53479 12.2902
209 1 -1.1104 12.2498 -2.04773 9.50065
210 1 -1.1104 12.2538 3.53477 9.50126
211 1 -1.1104 12.2518 0.743512 12.2904
212 2 2.2208 10.856 -0.650844 8.10586
213 2 2.2208 10.8601 4.93157 8.10644
214 1 -1.1104 12.2517 0.743506 9.50051
215 1 -1.1104 9.4604 -2.04778 12.2901
216 1 -1.1104 9.46435 3.53466 12.2906
217 2 2.2208 8.06858 2.14032 8.10613
218 1 -1.1104 9.46033 -2.04774 9.50023
219 1 -1.1104 9.46429 3.53467 9.50077
220 2 2.2208 8.06661 -0.65086 10.8953
221 2 2.2208 8.07062 4.93153 10.8959
222 1 -1.1104 9.4623 0.743441 12.2899
223 1 -1.1104 9.46234 0.743464 9.50093
116 1 -1.1104 12.2645 17.492 12.2924
227 1 -1.1104 1.09793 6.32575 6.71209
83 1 -1.1104 1.10205 11.908 6.71275
226 1 -1.1104 3.88733 6.32565 6.71167
257 1 -1.1104 6.68113 11.9078 6.71283
80 1 -1.1104 1.09989 9.11689 6.71202
229 2 2.2208 5.28317 7.72266 10.8962
230 2 2.2208 5.28736 13.3049 10.8969
231 1 -1.1104 1.09987 9.11709 12.2908
232 1 -1.1104 1.09996 9.11703 9.50183
233 1 -1.1104 1.09792 6.32587 12.2909
234 1 -1.1104 1.10198 11.9083 12.2915
235 2 2.2208 5.28525 10.5137 8.1071
236 1 -1.1104 1.09784 6.32585 9.50111
237 1 -1.1104 1.10192 11.9082 9.50177
238 1 -1.1104 3.88947 9.11695 12.2912
239 2 2.2208 2.49367 7.72262 8.10677
240 2 2.2208 2.49781 13.3048 8.10744
241 1 -1.1104 3.88939 9.11689 9.50142
242 2 2.2208 2.49571 10.5139 10.8965
243 1 -1.1104 3.88735 6.3258 12.2905
244 1 -1.1104 3.89146 11.9081 12.2911
245 1 -1.1104 3.88743 6.32576 9.50152
246 1 -1.1104 3.89156 11.908 9.50219
247 1 -1.1104 6.68101 11.908 9.50176
249 1 -1.1104 6.67685 6.32576 9.50108
21 1 -1.1104 12.2669 20.283 9.50372
251 1 -1.1104 6.67901 9.1169 9.50187
256 1 -1.1104 6.68112 11.9081 12.2916
250 1 -1.1104 6.67892 9.11698 12.2908
168 2 2.2208 10.8686 16.0965 8.10792
9026 2 2.2208 13.6558 13.3056 8.10751
114 1 -1.1104 9.46633 6.32575 6.71166
111 1 -1.1104 12.2579 9.11713 6.712
254 1 -1.1104 9.46852 9.11689 6.71249
260 1 -1.1104 12.2601 11.9084 6.71289
259 1 -1.1104 12.2559 6.3259 6.71214
200 2 2.2208 13.6537 10.5145 10.8965
113 1 -1.1104 9.47053 11.908 6.71236
248 1 -1.1104 6.67693 6.32581 12.2909
261 1 -1.1104 9.47065 11.9082 9.50229
262 1 -1.1104 9.46642 6.32587 9.50156
263 1 -1.1104 9.47057 11.9084 12.2911
264 1 -1.1104 9.46635 6.32591 12.2905
265 2 2.2208 8.07477 10.5139 10.8965
266 1 -1.1104 9.46841 9.11705 9.50141
267 2 2.2208 8.0769 13.3049 8.10749
268 2 2.2208 8.07268 7.72263 8.10676
269 2 2.2208 10.8621 7.72289 10.8962
270 2 2.2208 10.8664 13.3055 10.8969
271 1 -1.1104 12.2579 9.11745 12.2908
272 1 -1.1104 12.258 9.11733 9.50191
273 1 -1.1104 12.2559 6.32609 12.2909
274 1 -1.1104 12.2601 11.9089 12.2916
275 2 2.2208 10.8642 10.514 8.10713
276 1 -1.1104 12.2558 6.32603 9.50107
277 1 -1.1104 12.26 11.9087 9.50175
278 1 -1.1104 9.46851 9.11716 12.2913
173 2 2.2208 13.6516 7.72298 8.10677
140 2 2.2208 10.8732 21.6789 8.10885
61 1 -1.1104 6.68545 17.4903 12.2924
139 1 -1.1104 1.10399 14.6991 6.71276
288 1 -1.1104 6.68759 20.2813 12.2922
8883 2 2.2208 13.6603 18.8885 8.1084
167 1 -1.1104 6.68316 14.6992 12.2915
138 1 -1.1104 3.89369 14.6988 6.71316
290 1 -1.1104 3.89803 20.2805 6.71399
284 1 -1.1104 3.89568 17.4897 6.71314
287 1 -1.1104 1.10819 20.2811 6.71361
283 1 -1.1104 1.10395 14.6995 12.2915
289 2 2.2208 5.29168 18.887 10.8976
291 1 -1.1104 3.89781 20.2809 9.50293
292 1 -1.1104 3.89581 17.49 9.50295
293 2 2.2208 2.50205 18.8869 8.10823
294 1 -1.1104 3.89355 14.699 9.50214
295 1 -1.1104 1.1061 17.4907 12.2922
296 2 2.2208 2.49988 16.0961 10.8972
297 2 2.2208 2.50413 21.6782 10.898
298 1 -1.1104 3.89566 17.4902 12.2919
299 1 -1.1104 3.89789 20.2812 12.2927
300 1 -1.1104 3.89364 14.6992 12.2919
301 1 -1.1104 1.10827 20.2815 9.50329
302 1 -1.1104 1.10602 17.4905 9.50257
303 2 2.2208 5.29393 21.6775 8.10867
304 1 -1.1104 1.10409 14.6993 9.50253
305 2 2.2208 5.28951 16.0957 8.10785
306 1 -1.1104 1.10805 20.2818 12.2923
285 1 -1.1104 6.68754 20.2804 6.71354
279 2 2.2208 8.07909 16.0963 10.8972
27 1 -1.1104 9.4772 20.2818 9.50291
225 1 -1.1104 12.2622 14.7003 12.2915
286 1 -1.1104 6.68773 20.281 9.50348
55 1 -1.1104 6.68329 14.6991 9.50263
309 1 -1.1104 12.2644 17.4915 9.50254
312 1 -1.1104 12.2621 14.6996 6.71275
310 1 -1.1104 9.47739 20.2823 12.2929
164 1 -1.1104 9.4774 20.281 6.71423
308 1 -1.1104 6.68549 17.4897 6.71363
115 1 -1.1104 6.68532 17.49 9.50249
280 1 -1.1104 9.47509 17.4906 9.50313
307 2 2.2208 10.8709 18.8883 10.8977
30 1 -1.1104 9.4727 14.6994 9.50212
313 1 -1.1104 9.47284 14.6991 6.71329
253 2 2.2208 8.08132 18.887 8.10829
22 1 -1.1104 9.47497 17.491 12.2918
224 1 -1.1104 12.2667 20.2839 12.2922
170 1 -1.1104 9.47282 14.6997 12.292
314 1 -1.1104 9.47489 17.4901 6.71311
9184 2 2.2208 13.658 16.0959 -0.260581
338 2 2.2208 10.8581 2.14021 -0.262207
9024 2 2.2208 13.6626 21.679 5.31947
9005 2 2.2208 13.6625 21.6812 10.8981
8306 2 2.2208 13.6436 -3.44207 2.5267
8390 2 2.2208 5.27522 -3.44203 10.895
8180 2 2.2208 2.48574 -3.44198 8.10561
8342 2 2.2208 5.27522 -3.44199 5.31616
8341 2 2.2208 2.48575 -3.44202 2.52672
8185 2 2.2208 10.8541 -3.44205 5.31616
8370 2 2.2208 8.06469 -3.44202 2.5267
8495 2 2.2208 5.27524 -3.44204 -0.262748
8487 2 2.2208 10.8542 -3.44209 -0.262767
8336 2 2.2208 13.6435 -3.44207 8.1056
8304 2 2.2208 8.06467 -3.44204 8.10559
8281 2 2.2208 10.8541 -3.44209 10.895
339 2 2.2208 5.27913 2.14025 16.4744
340 1 -1.1104 1.09195 -2.04779 17.8685
341 1 -1.1104 1.09588 3.53456 17.869
342 1 -1.1104 1.092 -2.04776 15.0795
343 1 -1.1104 1.09592 3.53464 15.08
344 1 -1.1104 1.09396 0.743383 17.8692
345 2 2.2208 5.27718 -0.65097 19.2635
346 2 2.2208 5.28113 4.93132 19.2641
347 1 -1.1104 1.09389 0.743445 15.0793
348 1 -1.1104 3.88148 -2.04783 17.8689
349 1 -1.1104 3.8854 3.53451 17.8694
350 2 2.2208 2.48966 2.1402 19.2638
351 1 -1.1104 3.88142 -2.04777 15.0791
352 1 -1.1104 3.88536 3.53457 15.0796
353 2 2.2208 2.4877 -0.650905 16.4741
354 2 2.2208 2.49165 4.93145 16.4747
355 1 -1.1104 3.88339 0.743342 17.8687
356 1 -1.1104 3.88342 0.743403 15.0797
368 1 -1.1104 6.6749 3.53457 15.08
667 2 2.2208 2.48966 2.14033 13.685
357 1 -1.1104 6.6729 0.743331 17.8692
361 1 -1.1104 6.67485 3.5345 17.869
360 1 -1.1104 6.67285 0.743372 15.0793
359 1 -1.1104 3.88143 -2.04783 20.6579
366 1 -1.1104 1.09201 -2.04783 20.6583
509 1 -1.1104 1.09592 3.53447 20.6589
510 1 -1.1104 3.88535 3.53443 20.6584
545 1 -1.1104 6.67097 -2.04786 20.6583
662 2 2.2208 5.29386 21.678 13.6873
9458 2 2.2208 13.6558 13.3048 24.8439
372 1 -1.1104 6.67091 -2.04784 17.8685
371 1 -1.1104 6.67094 -2.04781 15.0795
365 2 2.2208 13.6475 2.14033 19.2638
373 2 2.2208 10.8581 2.14032 16.4744
374 1 -1.1104 12.2498 -2.04786 17.8685
375 1 -1.1104 12.2538 3.53466 17.869
376 1 -1.1104 12.2498 -2.04781 15.0795
377 1 -1.1104 12.2538 3.53476 15.0801
378 1 -1.1104 12.2518 0.743398 17.8692
379 2 2.2208 10.8561 -0.650962 19.2635
380 2 2.2208 10.8601 4.93146 19.2641
381 1 -1.1104 12.2517 0.743465 15.0793
382 1 -1.1104 9.46041 -2.04787 17.8689
383 1 -1.1104 9.46436 3.53454 17.8694
384 2 2.2208 8.06861 2.1402 19.2638
385 1 -1.1104 9.46035 -2.04783 15.0791
386 1 -1.1104 9.46432 3.53463 15.0796
387 2 2.2208 8.06663 -0.650948 16.4741
388 2 2.2208 8.07062 4.93145 16.4747
389 1 -1.1104 9.46231 0.743341 17.8687
390 1 -1.1104 9.46236 0.743402 15.0797
674 2 2.2208 10.8601 4.93162 13.6853
364 2 2.2208 13.6455 -0.650891 16.4741
671 2 2.2208 8.0686 2.14031 13.685
548 1 -1.1104 12.2518 0.743351 20.6581
546 1 -1.1104 9.46238 0.743309 20.6586
675 2 2.2208 10.8561 -0.650883 13.6847
395 2 2.2208 5.28317 7.72257 16.475
396 2 2.2208 5.28733 13.3048 16.4756
397 1 -1.1104 1.09989 9.11692 17.8696
398 1 -1.1104 1.09991 9.11704 15.0806
399 1 -1.1104 1.09792 6.32574 17.8697
400 1 -1.1104 1.10196 11.9081 17.8703
401 2 2.2208 5.28522 10.5135 19.2647
402 1 -1.1104 1.09788 6.32583 15.0799
403 1 -1.1104 1.1019 11.9082 15.0805
404 1 -1.1104 3.88944 9.11677 17.87
405 2 2.2208 2.49366 7.7225 19.2643
406 2 2.2208 2.49777 13.3047 19.265
407 1 -1.1104 3.88939 9.11691 15.0802
408 2 2.2208 2.49569 10.5138 16.4752
409 1 -1.1104 3.88738 6.32565 17.8693
410 1 -1.1104 3.89148 11.9079 17.8699
411 1 -1.1104 3.88742 6.32574 15.0803
412 1 -1.1104 3.8915 11.908 15.0809
415 1 -1.1104 6.68103 11.9081 15.0805
422 1 -1.1104 6.67898 9.11692 15.0806
414 1 -1.1104 6.67692 6.32564 17.8697
571 1 -1.1104 1.09992 9.11673 20.6594
600 1 -1.1104 6.67894 9.11659 20.6595
420 1 -1.1104 12.2622 14.699 23.449
654 2 2.2208 10.8643 10.5142 13.6859
572 1 -1.1104 3.88739 6.32553 20.6591
570 1 -1.1104 3.8894 9.11659 20.659
574 1 -1.1104 3.89149 11.9076 20.6597
442 1 -1.1104 6.68101 11.9076 20.6593
659 2 2.2208 2.49776 13.305 13.6862
417 1 -1.1104 6.67892 9.11677 17.8696
416 1 -1.1104 6.67687 6.32575 15.0799
421 1 -1.1104 6.68105 11.9079 17.8703
423 2 2.2208 10.8621 7.72282 16.4749
424 2 2.2208 10.8664 13.3054 16.4756
425 1 -1.1104 12.2579 9.11723 17.8695
426 1 -1.1104 12.2579 9.11742 15.0806
427 1 -1.1104 12.2558 6.32593 17.8697
428 1 -1.1104 12.26 11.9085 17.8703
429 2 2.2208 10.8642 10.5139 19.2646
430 1 -1.1104 12.2558 6.32607 15.0798
431 1 -1.1104 12.26 11.9088 15.0804
432 1 -1.1104 9.46845 9.11695 17.87
433 2 2.2208 8.07265 7.72251 19.2644
434 2 2.2208 8.07686 13.3047 19.265
435 1 -1.1104 9.46844 9.11712 15.0801
436 2 2.2208 8.07476 10.5138 16.4753
437 1 -1.1104 9.46636 6.32575 17.8692
438 1 -1.1104 9.47056 11.9082 17.8698
439 1 -1.1104 9.4664 6.32587 15.0803
440 1 -1.1104 9.4706 11.9084 15.081
447 1 -1.1104 12.2558 6.32579 20.6587
666 2 2.2208 8.07267 7.72273 13.6856
625 2 2.2208 13.6537 10.5144 16.4752
392 2 2.2208 13.6515 7.72287 19.2643
443 1 -1.1104 12.26 11.9082 20.6592
441 1 -1.1104 9.46841 9.11677 20.659
656 2 2.2208 8.0769 13.3051 13.6862
629 1 -1.1104 6.68317 14.6986 20.6601
9308 2 2.2208 13.658 16.0963 22.0546
451 2 2.2208 5.29163 18.8868 16.4762
452 1 -1.1104 1.10399 14.6992 17.8702
453 1 -1.1104 1.1081 20.2812 17.8709
454 1 -1.1104 1.104 14.6994 15.0812
455 1 -1.1104 1.10804 20.2817 15.0818
456 1 -1.1104 1.10605 17.4902 17.8709
457 2 2.2208 5.28946 16.0955 19.2653
458 2 2.2208 5.29379 21.6771 19.266
459 1 -1.1104 1.10601 17.4906 15.0812
460 1 -1.1104 3.89357 14.6989 17.8706
461 1 -1.1104 3.89779 20.2806 17.8713
462 2 2.2208 2.50198 18.8866 19.2656
463 1 -1.1104 3.89356 14.6991 15.0808
464 1 -1.1104 3.8978 20.281 15.0815
465 2 2.2208 2.49985 16.096 16.4759
466 2 2.2208 2.50401 21.6779 16.4766
467 1 -1.1104 3.8957 17.4898 17.8705
468 1 -1.1104 3.89571 17.4901 15.0816
471 1 -1.1104 3.89785 20.2801 20.6603
9225 2 2.2208 13.6602 18.8869 24.8445
661 2 2.2208 2.50195 18.8873 13.6869
470 1 -1.1104 6.68537 17.4903 15.0811
481 1 -1.1104 6.68318 14.6989 17.8702
476 1 -1.1104 1.10815 20.2806 20.6607
472 1 -1.1104 3.89358 14.6986 20.6596
477 1 -1.1104 3.89571 17.4894 20.6604
631 1 -1.1104 1.10612 17.4898 20.66
478 1 -1.1104 6.68535 17.4894 20.6599
660 2 2.2208 5.28948 16.096 13.6865
418 1 -1.1104 12.2644 17.4906 20.6597
473 1 -1.1104 6.68321 14.6992 15.0813
484 1 -1.1104 6.6876 20.2807 17.8708
363 2 2.2208 13.6455 -0.650951 22.053
483 1 -1.1104 6.68763 20.2812 15.082
474 1 -1.1104 6.68536 17.4899 17.871
486 2 2.2208 10.8708 18.8881 16.4761
487 1 -1.1104 12.2622 14.6999 17.8701
488 1 -1.1104 12.2668 20.2829 17.8705
489 1 -1.1104 12.2622 14.7003 15.0813
490 1 -1.1104 12.2668 20.2837 15.082
491 1 -1.1104 12.2644 17.4914 17.8709
492 2 2.2208 10.8686 16.0963 19.2652
493 2 2.2208 10.873 21.6786 19.2658
494 1 -1.1104 12.2645 17.4919 15.081
495 1 -1.1104 9.47274 14.6993 17.8707
496 1 -1.1104 9.47719 20.2816 17.8713
497 2 2.2208 8.08126 18.8867 19.2656
498 1 -1.1104 9.47275 14.6996 15.0808
499 1 -1.1104 9.47731 20.2823 15.0813
500 2 2.2208 8.07907 16.0962 16.4759
501 2 2.2208 8.08356 21.6783 16.4765
502 1 -1.1104 9.475 17.4905 17.8704
503 1 -1.1104 9.47502 17.4909 15.0817
630 1 -1.1104 9.47272 14.6989 20.6595
658 2 2.2208 10.8732 21.6801 13.6872
663 2 2.2208 8.08132 18.8875 13.6869
655 2 2.2208 10.8686 16.097 13.6865
670 2 2.2208 5.28523 10.5138 13.6859
668 2 2.2208 13.6516 7.72313 13.6855
515 1 -1.1104 3.88344 0.743304 20.6586
514 1 -1.1104 1.09391 0.74332 20.6582
669 2 2.2208 2.49366 7.7227 13.6856
516 2 2.2208 5.27914 2.14015 22.0532
517 1 -1.1104 1.09195 -2.04782 23.4474
518 1 -1.1104 1.09588 3.53444 23.4479
519 1 -1.1104 1.09203 -2.0478 26.2372
520 1 -1.1104 1.09593 3.53441 26.2378
521 1 -1.1104 1.09397 0.743319 23.4481
522 2 2.2208 5.27718 -0.650968 24.8424
523 1 -1.1104 1.0939 0.743323 26.2371
524 1 -1.1104 3.88149 -2.04781 23.4478
525 1 -1.1104 3.88541 3.5344 23.4483
526 2 2.2208 2.48967 2.14017 24.8427
527 1 -1.1104 3.88143 -2.04781 26.2368
528 1 -1.1104 3.88535 3.53437 26.2374
529 2 2.2208 2.4877 -0.650959 22.053
530 2 2.2208 2.49164 4.93128 22.0535
531 1 -1.1104 3.88339 0.743305 23.4476
532 1 -1.1104 3.88344 0.743283 26.2375
533 2 2.2208 5.28112 4.93121 24.843
536 1 -1.1104 6.67096 -2.04781 26.2372
547 1 -1.1104 6.67292 0.743265 23.448
511 1 -1.1104 6.67488 3.53443 20.6588
535 1 -1.1104 6.67285 0.743298 26.2371
537 1 -1.1104 6.67489 3.53437 26.2378
542 1 -1.1104 6.67092 -2.04782 23.4474
449 1 -1.1104 9.47722 20.2807 20.6601
419 2 2.2208 13.6475 2.14025 24.8427
539 1 -1.1104 6.67287 0.743298 20.6582
394 2 2.2208 13.6495 4.93149 22.0535
549 1 -1.1104 6.67484 3.53436 23.4479
507 1 -1.1104 12.2622 14.6994 20.66
544 1 -1.1104 9.46037 -2.04788 20.6579
393 1 -1.1104 12.2499 -2.04788 20.6583
540 1 -1.1104 12.2538 3.53456 20.6589
543 1 -1.1104 9.46431 3.53449 20.6584
550 2 2.2208 10.8581 2.1402 22.0532
551 1 -1.1104 12.2498 -2.04787 23.4474
552 1 -1.1104 12.2538 3.53451 23.4479
553 1 -1.1104 12.2499 -2.04783 26.2372
554 1 -1.1104 12.2538 3.53449 26.2378
555 1 -1.1104 12.2518 0.743331 23.448
556 2 2.2208 10.8561 -0.650959 24.8424
557 2 2.2208 10.8601 4.93132 24.843
558 1 -1.1104 12.2518 0.743337 26.2371
559 1 -1.1104 9.46045 -2.04785 23.4478
560 1 -1.1104 9.46437 3.53442 23.4483
561 2 2.2208 8.06861 2.14014 24.8427
562 1 -1.1104 9.46036 -2.04781 26.2368
563 1 -1.1104 9.46429 3.53442 26.2373
564 2 2.2208 8.06666 -0.650978 22.053
565 2 2.2208 8.07061 4.93128 22.0535
566 1 -1.1104 9.46233 0.743296 23.4476
567 1 -1.1104 9.46238 0.743316 26.2375
391 2 2.2208 13.6495 4.93171 16.4747
506 2 2.2208 8.07904 16.0954 22.0547
413 1 -1.1104 1.10196 11.9078 20.6593
595 1 -1.1104 6.67685 6.32553 20.6587
575 1 -1.1104 1.09788 6.32562 20.6587
576 2 2.2208 5.28315 7.72233 22.0538
577 2 2.2208 5.28732 13.3043 22.0544
578 1 -1.1104 1.0999 9.1166 23.4485
579 1 -1.1104 1.09996 9.11654 26.2384
580 1 -1.1104 1.09792 6.32554 23.4486
581 1 -1.1104 1.102 11.9076 23.4492
582 2 2.2208 5.28521 10.5132 24.8436
583 1 -1.1104 1.09787 6.32549 26.2376
584 1 -1.1104 1.10196 11.9075 26.2383
585 1 -1.1104 3.88944 9.11647 23.4489
586 2 2.2208 2.49366 7.7223 24.8433
587 2 2.2208 2.4978 13.3043 24.8439
588 1 -1.1104 3.88937 9.11642 26.2379
589 2 2.2208 2.49571 10.5134 22.0541
590 1 -1.1104 3.88734 6.32545 23.4482
591 1 -1.1104 3.89146 11.9074 23.4488
592 1 -1.1104 3.88741 6.32542 26.2381
593 1 -1.1104 3.89153 11.9074 26.2387
601 1 -1.1104 6.68102 11.9074 23.4492
602 1 -1.1104 6.68099 11.9073 26.2383
604 1 -1.1104 6.67895 9.11639 26.2384
603 1 -1.1104 6.67689 6.32543 23.4486
596 1 -1.1104 6.67684 6.32541 26.2376
534 1 -1.1104 12.2667 20.2805 26.2398
594 1 -1.1104 6.67889 9.11647 23.4484
599 2 2.2208 13.6515 7.72258 24.8433
508 2 2.2208 10.873 21.6771 24.8449
445 1 -1.1104 9.46638 6.32564 20.6591
444 1 -1.1104 9.47055 11.9078 20.6598
446 1 -1.1104 12.2579 9.117 20.6594
605 1 -1.1104 9.46843 9.11657 23.4489
606 1 -1.1104 12.26 11.9078 26.2382
607 1 -1.1104 12.2558 6.32562 26.2376
608 2 2.2208 10.8642 10.5135 24.8436
609 1 -1.1104 12.26 11.9079 23.4492
610 1 -1.1104 12.2558 6.32566 23.4486
611 1 -1.1104 12.2579 9.11673 26.2384
612 1 -1.1104 12.2578 9.11681 23.4484
613 1 -1.1104 9.47057 11.9075 26.2387
614 1 -1.1104 9.46637 6.3255 26.2381
615 1 -1.1104 9.4705 11.9076 23.4487
616 1 -1.1104 9.46632 6.32551 23.4481
617 2 2.2208 8.07471 10.5134 22.0541
618 1 -1.1104 9.46837 9.11653 26.2379
619 2 2.2208 8.07686 13.3043 24.8439
620 2 2.2208 8.07263 7.72229 24.8432
621 2 2.2208 10.8621 7.72251 22.0538
622 2 2.2208 10.8663 13.3047 22.0544
568 1 -1.1104 6.6876 20.2796 26.2399
569 1 -1.1104 6.68536 17.4891 23.4499
469 1 -1.1104 1.10403 14.6989 20.66
627 1 -1.1104 6.68315 14.6983 23.4491
628 1 -1.1104 6.68752 20.2801 20.6608
512 1 -1.1104 6.6832 14.6982 26.2391
632 2 2.2208 2.50416 21.6768 22.0555
633 1 -1.1104 3.89573 17.4891 23.4495
634 1 -1.1104 1.10618 17.4895 23.4498
635 1 -1.1104 3.89357 14.6982 26.2386
636 1 -1.1104 3.89583 17.489 26.2394
637 2 2.2208 2.50209 18.8859 24.8447
638 1 -1.1104 3.89789 20.2796 26.2394
639 2 2.2208 5.29164 18.8859 22.0551
640 1 -1.1104 1.10405 14.6986 23.4491
641 1 -1.1104 1.10827 20.2802 23.4499
642 2 2.2208 5.28948 16.095 24.8443
643 2 2.2208 5.29388 21.6763 24.8451
644 1 -1.1104 1.10412 14.6985 26.239
645 1 -1.1104 1.10618 17.4893 26.239
646 1 -1.1104 1.10841 20.2801 26.2398
647 1 -1.1104 3.89362 14.6983 23.4495
648 1 -1.1104 3.89791 20.2797 23.4503
649 2 2.2208 2.4999 16.0953 22.0548
573 2 2.2208 10.8708 18.8868 22.055
485 1 -1.1104 9.47491 17.4898 20.6604
369 1 -1.1104 12.2644 17.4897 26.2389
538 2 2.2208 8.08347 21.6769 22.0555
624 1 -1.1104 9.47711 20.2799 26.2393
448 1 -1.1104 9.47495 17.4892 26.2395
650 1 -1.1104 6.68753 20.2797 23.4498
653 1 -1.1104 6.68533 17.4889 26.239
623 1 -1.1104 9.4749 17.4894 23.4493
505 2 2.2208 8.08125 18.8859 24.8446
626 1 -1.1104 12.2666 20.2809 23.4495
597 1 -1.1104 9.47266 14.6984 26.2386
652 1 -1.1104 12.2622 14.6988 26.2391
541 1 -1.1104 12.2644 17.49 23.4498
651 1 -1.1104 9.47713 20.2801 23.4503
475 1 -1.1104 9.47272 14.6985 23.4496
513 2 2.2208 10.8685 16.0955 24.8442
504 1 -1.1104 12.2666 20.2817 20.6606
9518 2 2.2208 13.6558 13.306 13.6862
672 2 2.2208 5.27715 -0.650882 13.6847
673 2 2.2208 5.28113 4.93148 13.6853
657 2 2.2208 13.6475 2.14045 13.685
598 2 2.2208 13.6536 10.5139 22.0541
9216 2 2.2208 13.6558 13.3055 19.2649
9364 2 2.2208 13.658 16.0974 16.4758
9512 2 2.2208 13.6602 18.8895 13.6869
9392 2 2.2208 13.6624 21.681 16.4763
9359 2 2.2208 13.6602 18.8883 19.2654
9228 2 2.2208 13.6624 21.6786 22.0551
8564 2 2.2208 5.27525 -3.44211 22.0527
8656 2 2.2208 2.48577 -3.44209 24.8422
8845 2 2.2208 2.48574 -3.44205 13.6844
8593 2 2.2208 2.48576 -3.4421 19.2633
8627 2 2.2208 5.27522 -3.44211 16.4738
8842 2 2.2208 8.06469 -3.44212 13.6844
8649 2 2.2208 10.8541 -3.44218 16.4739
8623 2 2.2208 8.06471 -3.44217 19.2633
8708 2 2.2208 13.6436 -3.44221 19.2633
8848 2 2.2208 13.6436 -3.44214 13.6844
8657 2 2.2208 13.6436 -3.44217 24.8421
8535 2 2.2208 10.8542 -3.44217 22.0527
8683 2 2.2208 8.06471 -3.44209 24.8421
676 2 2.2208 5.2963 24.4676 5.31972
677 2 2.2208 5.30168 30.0484 5.3206
678 1 -1.1104 1.11285 25.8615 1.13547
679 1 -1.1104 1.11298 25.862 3.92533
680 1 -1.1104 1.1107 23.0709 1.13539
681 1 -1.1104 1.11558 28.6521 1.13635
682 2 2.2208 5.29889 27.2576 2.53081
683 1 -1.1104 1.11046 23.0714 3.92457
684 1 -1.1104 1.11522 28.6526 3.92544
685 1 -1.1104 3.90269 25.8608 1.13595
686 2 2.2208 2.50669 24.4675 2.53022
687 2 2.2208 2.51217 30.0486 2.53128
688 1 -1.1104 3.90245 25.8611 3.92496
689 2 2.2208 2.5091 27.2586 5.32009
690 1 -1.1104 3.90013 23.0703 1.13503
691 1 -1.1104 3.905 28.6511 1.136
692 1 -1.1104 3.9003 23.0707 3.92496
693 1 -1.1104 3.9052 28.6514 3.92591
703 1 -1.1104 6.68996 23.0702 1.13556
696 1 -1.1104 6.69245 25.8609 3.92558
1015 2 2.2208 5.29628 24.4668 -0.259196
892 2 2.2208 2.50915 27.2577 -0.258712
840 1 -1.1104 3.90004 23.0711 6.71398
841 1 -1.1104 3.90475 28.6518 6.71483
838 1 -1.1104 1.11509 28.6532 6.71517
1013 2 2.2208 -0.256687 41.2109 -0.255942
1001 2 2.2208 5.30148 30.0477 -0.25778
694 1 -1.1104 6.6948 28.651 3.92543
704 1 -1.1104 6.69496 28.6508 1.13665
698 1 -1.1104 6.68981 23.0705 3.92452
695 1 -1.1104 6.69218 25.8605 1.13547
705 2 2.2208 10.8756 24.4689 5.31996
706 2 2.2208 10.8807 30.0505 5.32121
707 1 -1.1104 12.2714 25.8619 1.13535
708 1 -1.1104 12.2718 25.8627 3.92594
709 1 -1.1104 12.2691 23.0714 1.13561
710 1 -1.1104 12.2742 28.6523 1.13662
711 2 2.2208 10.878 27.2586 2.53097
712 1 -1.1104 12.269 23.072 3.92459
713 1 -1.1104 12.2741 28.653 3.9257
714 1 -1.1104 9.48204 25.861 1.13613
715 2 2.2208 8.08596 24.4673 2.53035
716 2 2.2208 8.0912 30.0483 2.53158
717 1 -1.1104 9.48193 25.8614 3.92502
718 2 2.2208 8.08855 27.2584 5.32032
719 1 -1.1104 9.47942 23.0706 1.13497
720 1 -1.1104 9.48436 28.6512 1.13597
721 1 -1.1104 9.47972 23.071 3.92523
722 1 -1.1104 9.48486 28.6517 3.92638
1011 2 2.2208 8.08832 27.2574 -0.258582
1014 2 2.2208 10.8754 24.4676 -0.259284
867 1 -1.1104 9.47952 23.0718 6.71403
868 1 -1.1104 12.2715 25.8642 6.71476
757 2 2.2208 2.54208 44.007 -0.253065
1003 2 2.2208 10.8802 30.0485 -0.257997
1004 2 2.2208 2.5154 32.8387 -0.257175
728 2 2.2208 5.3094 35.63 5.32185
729 1 -1.1104 1.11819 31.4424 1.13636
730 1 -1.1104 1.12594 37.0233 1.13713
731 1 -1.1104 1.11832 31.443 3.92635
732 1 -1.1104 1.12617 37.0239 3.92765
733 1 -1.1104 1.12191 34.2331 1.13769
734 2 2.2208 5.30512 32.8389 2.53226
735 2 2.2208 5.31513 38.423 2.53407
736 1 -1.1104 1.1216 34.2333 3.92606
737 1 -1.1104 3.90811 31.4415 1.13722
738 1 -1.1104 3.9156 37.0232 1.1392
739 2 2.2208 2.52061 35.6302 2.53261
740 1 -1.1104 3.90785 31.4416 3.92586
741 1 -1.1104 3.91547 37.0223 3.92644
742 2 2.2208 2.51561 32.8395 5.32096
743 2 2.2208 2.52789 38.4213 5.32147
744 1 -1.1104 3.91116 34.2319 1.13721
745 1 -1.1104 3.91137 34.2318 3.92725
894 1 -1.1104 3.91075 34.2314 6.7156
758 1 -1.1104 6.69786 31.441 3.92667
759 1 -1.1104 6.701 34.2317 1.13838
746 1 -1.1104 6.69746 31.441 1.13671
782 2 2.2208 2.52553 38.4213 -0.254615
753 1 -1.1104 6.69749 31.4411 6.71522
896 1 -1.1104 1.12548 37.0235 6.71543
898 1 -1.1104 3.90765 31.4416 6.7158
748 1 -1.1104 3.91505 37.021 6.71721
750 1 -1.1104 6.70456 37.0227 1.13807
751 1 -1.1104 6.70458 37.0211 3.92813
981 2 2.2208 -0.25493 41.2111 10.8976
747 1 -1.1104 6.70091 34.2309 3.92644
760 2 2.2208 10.8862 35.632 5.32261
761 1 -1.1104 12.2766 31.4424 1.13638
762 1 -1.1104 12.2827 37.0226 1.13742
763 1 -1.1104 12.2775 31.4431 3.92727
764 1 -1.1104 12.284 37.0211 3.92732