ITEM: TIMESTEP
364
ITEM: NUMBER OF ATOMS
17652
ITEM: BOX BOUNDS pp pp pp
-2.7717828229332220e-01 2.7617178282293317e+01
-3.4472205766305355e+00 3.3152722057663055e+02
-2.7717827830221448e-01 2.7617178278302212e+01
ITEM: ATOMS id type q x y z
1 2 2.2208 5.29403 2.14024 5.30906
2 1 -1.1104 1.10549 -2.0485 1.12511
3 1 -1.1104 1.1113 3.53451 1.1243
4 1 -1.1104 1.10545 -2.04845 3.9152
5 1 -1.1104 1.11124 3.53462 3.91439
6 1 -1.1104 1.10833 0.743017 1.12532
7 2 2.2208 5.29111 -0.651379 2.51997
8 2 2.2208 5.29687 4.93164 2.51921
9 1 -1.1104 1.1084 0.743074 3.91415
10 1 -1.1104 3.89489 -2.04849 1.12573
11 1 -1.1104 3.90067 3.53452 1.12496
12 2 2.2208 2.50455 2.14013 2.51956
13 1 -1.1104 3.89496 -2.04842 3.91455
14 1 -1.1104 3.90075 3.5346 3.91381
15 2 2.2208 2.50168 -0.651309 5.30941
16 2 2.2208 2.50744 4.93177 5.30864
17 1 -1.1104 3.89786 0.742999 1.12474
18 1 -1.1104 3.8978 0.743102 3.91482
29 1 -1.1104 3.8979 0.743198 6.70364
24 1 -1.1104 1.11132 3.53473 6.70324
34 1 -1.1104 6.68437 -2.04841 3.91519
19 1 -1.1104 6.69018 3.53451 1.12439
231 2 2.2208 13.6566 -3.443 8.09921
33 2 2.2208 13.6565 -3.44305 2.52031
21 1 -1.1104 1.10552 -2.04838 6.704
22 1 -1.1104 3.89492 -2.04834 6.70464
9170 2 2.2208 13.6681 7.72364 8.09774
32 2 2.2208 10.8671 -3.44292 5.30978
20 1 -1.1104 6.68734 0.743096 3.91422
35 1 -1.1104 6.68443 -2.04848 1.1251
26 1 -1.1104 6.68724 0.743013 1.12538
28 1 -1.1104 6.69014 3.53461 3.91448
36 2 2.2208 10.8729 2.14021 5.30906
37 1 -1.1104 12.2633 -2.04858 1.12509
38 1 -1.1104 12.2691 3.53449 1.12437
39 1 -1.1104 12.2633 -2.04851 3.91517
40 1 -1.1104 12.269 3.53459 3.91445
41 1 -1.1104 12.2661 0.742966 1.12534
42 2 2.2208 10.87 -0.651417 2.51996
43 2 2.2208 10.8758 4.93166 2.51921
44 1 -1.1104 12.2662 0.743036 3.91421
45 1 -1.1104 9.47381 -2.0485 1.12572
46 1 -1.1104 9.47956 3.53453 1.12499
47 2 2.2208 8.08345 2.14013 2.51961
48 1 -1.1104 9.47389 -2.04846 3.91458
49 1 -1.1104 9.47964 3.5346 3.91387
50 2 2.2208 8.08059 -0.651321 5.30944
51 2 2.2208 8.08634 4.93177 5.30871
52 1 -1.1104 9.47677 0.74303 1.12476
53 1 -1.1104 9.47674 0.743071 3.91484
59 1 -1.1104 12.2691 3.53474 6.70329
60 1 -1.1104 12.2662 0.743132 6.70428
54 1 -1.1104 9.47384 -2.04838 6.70466
337 2 2.2208 -0.267986 18.8904 10.8856
27 1 -1.1104 6.68445 -2.04836 6.70402
31 1 -1.1104 6.69022 3.53474 6.70332
209 1 -1.1104 9.47681 0.743171 6.70367
56 1 -1.1104 12.2634 -2.04847 6.70403
30 1 -1.1104 6.6873 0.743188 6.70429
61 2 2.2208 13.6595 -0.651416 5.30942
178 2 2.2208 5.28823 -3.4428 10.8886
64 2 2.2208 5.29975 7.72329 5.30829
65 2 2.2208 5.30542 13.3063 5.30757
66 1 -1.1104 1.11701 9.11745 1.12352
67 1 -1.1104 1.11695 9.11759 3.91363
68 1 -1.1104 1.11407 6.326 1.12451
69 1 -1.1104 1.11975 11.9088 1.12375
70 2 2.2208 5.30256 10.5146 2.51844
71 1 -1.1104 1.11416 6.3261 3.91338
72 1 -1.1104 1.1198 11.909 3.91267
73 1 -1.1104 3.90639 9.11746 1.12416
74 2 2.2208 2.51028 7.72312 2.51878
75 2 2.2208 2.51592 13.306 2.51804
76 1 -1.1104 3.90643 9.11758 3.91305
77 2 2.2208 2.51313 10.5148 5.30788
78 1 -1.1104 3.90359 6.32599 1.12393
79 1 -1.1104 3.90927 11.9089 1.12317
80 1 -1.1104 3.90357 6.32611 3.91404
81 1 -1.1104 3.90924 11.909 3.91329
339 2 2.2208 -0.273532 13.3063 5.30754
237 1 -1.1104 3.90363 6.32629 6.7029
86 1 -1.1104 3.90928 11.9093 6.70218
88 1 -1.1104 6.69306 6.3261 3.91347
93 1 -1.1104 6.69303 6.32631 6.70356
341 2 2.2208 -0.276339 10.5146 2.51839
82 1 -1.1104 3.90646 9.11784 6.70314
242 1 -1.1104 1.11701 9.11783 6.70249
175 1 -1.1104 12.2859 20.2847 6.70154
90 1 -1.1104 6.69866 11.9089 1.12379
85 1 -1.1104 6.69296 6.32602 1.12459
84 1 -1.1104 6.69871 11.909 3.91271
92 1 -1.1104 6.69585 9.11759 3.9137
89 1 -1.1104 6.69589 9.11746 1.12357
94 2 2.2208 10.8786 7.72334 5.30832
95 2 2.2208 10.8843 13.3065 5.30762
96 1 -1.1104 12.2748 9.11751 1.12357
97 1 -1.1104 12.2747 9.11768 3.91369
98 1 -1.1104 12.2719 6.32603 1.12458
99 1 -1.1104 12.2775 11.9089 1.12381
100 2 2.2208 10.8815 10.5147 2.51844
101 1 -1.1104 12.2719 6.32614 3.91346
102 1 -1.1104 12.2776 11.9092 3.91273
103 1 -1.1104 9.48527 9.11749 1.12419
104 2 2.2208 8.08917 7.72315 2.51883
105 2 2.2208 8.09484 13.306 2.51809
106 1 -1.1104 9.48535 9.11764 3.91309
107 2 2.2208 8.09204 10.5148 5.30794
108 1 -1.1104 9.48248 6.32603 1.12398
109 1 -1.1104 9.48817 11.9089 1.12319
110 1 -1.1104 9.48245 6.32614 3.91409
111 1 -1.1104 9.48815 11.9091 3.91335
265 1 -1.1104 9.48254 6.32631 6.70294
91 1 -1.1104 6.69875 11.9094 6.70281
118 1 -1.1104 12.2776 11.9096 6.70285
180 2 2.2208 13.6595 -0.651339 10.8883
324 1 -1.1104 12.2804 14.702 9.49193
320 1 -1.1104 12.286 20.2873 12.28
348 2 2.2208 -0.267965 18.8892 5.30691
344 2 2.2208 -0.265089 21.6799 2.5171
120 2 2.2208 5.31105 18.8891 5.30697
121 1 -1.1104 1.12261 14.7002 1.12279
122 1 -1.1104 1.12823 20.2826 1.1221
123 1 -1.1104 1.12258 14.7004 3.91292
124 1 -1.1104 1.12821 20.283 3.91229
125 1 -1.1104 1.12538 17.4915 1.12304
126 2 2.2208 5.3082 16.0973 2.51772
127 2 2.2208 5.31387 21.6797 2.51713
128 1 -1.1104 1.12535 17.4918 3.91202
129 1 -1.1104 3.91202 14.7002 1.12339
130 1 -1.1104 3.91767 20.2826 1.12271
131 2 2.2208 2.52155 18.8886 2.5174
132 1 -1.1104 3.91206 14.7004 3.91234
133 1 -1.1104 3.91764 20.2829 3.91172
134 2 2.2208 2.51874 16.0977 5.30722
135 2 2.2208 2.52438 21.6804 5.30663
136 1 -1.1104 3.91488 17.4914 1.12245
137 1 -1.1104 3.91487 17.4917 3.91263
144 1 -1.1104 3.91485 17.4923 6.70153
140 1 -1.1104 3.91211 14.7008 6.70244
146 1 -1.1104 6.70154 14.7004 3.91299
149 1 -1.1104 6.70722 20.283 3.91243
152 1 -1.1104 6.70714 20.2839 6.7013
343 2 2.2208 -0.270736 16.0974 2.5177
142 1 -1.1104 6.70442 17.4924 6.70221
298 1 -1.1104 6.70437 17.4932 9.49093
147 1 -1.1104 6.70431 17.4914 1.12307
141 1 -1.1104 6.70715 20.2825 1.12214
151 1 -1.1104 6.70432 17.4918 3.91205
148 1 -1.1104 6.70154 14.7002 1.1228
153 2 2.2208 10.8899 18.8895 5.30712
154 1 -1.1104 12.2804 14.7003 1.12286
155 1 -1.1104 12.286 20.2827 1.12229
156 1 -1.1104 12.2804 14.7007 3.91306
157 1 -1.1104 12.2861 20.2834 3.91262
158 1 -1.1104 12.2832 17.4916 1.12319
159 2 2.2208 10.8871 16.0975 2.5178
160 2 2.2208 10.8927 21.68 2.51734
161 1 -1.1104 12.2832 17.4921 3.91219
162 1 -1.1104 9.49094 14.7002 1.12344
163 1 -1.1104 9.49659 20.2827 1.12284
164 2 2.2208 8.10048 18.8887 2.51747
165 1 -1.1104 9.49097 14.7005 3.91239
166 1 -1.1104 9.49656 20.2832 3.91188
167 2 2.2208 8.09768 16.0978 5.30729
168 2 2.2208 8.10336 21.6807 5.30682
169 1 -1.1104 9.49378 17.4915 1.1225
170 1 -1.1104 9.49382 17.4919 3.91275
172 1 -1.1104 12.2833 17.493 6.70235
295 1 -1.1104 6.70156 14.7009 6.70186
177 1 -1.1104 9.49378 17.4927 6.70162
333 1 -1.1104 6.70726 20.2858 12.2798
25 1 -1.1104 1.10837 0.743182 6.70423
23 1 -1.1104 3.90072 3.53477 6.70389
211 2 2.2208 13.6624 2.14028 8.09849
9160 2 2.2208 13.6681 7.72318 2.51881
181 2 2.2208 5.29408 2.14039 10.8879
182 1 -1.1104 1.10555 -2.04834 12.2828
183 1 -1.1104 1.11136 3.53488 12.2821
184 1 -1.1104 1.10547 -2.04833 9.49405
185 1 -1.1104 1.11128 3.53487 9.49328
186 1 -1.1104 1.1084 0.743275 12.2831
187 2 2.2208 5.29116 -0.651232 8.09885
188 2 2.2208 5.29693 4.93192 8.09813
189 1 -1.1104 1.10846 0.743265 9.49304
190 1 -1.1104 3.89493 -2.04832 12.2835
191 1 -1.1104 3.90075 3.53491 12.2827
192 2 2.2208 2.50459 2.14033 8.09846
193 1 -1.1104 3.89501 -2.04831 9.49343
194 1 -1.1104 3.9008 3.53485 9.49269
195 2 2.2208 2.50171 -0.651209 10.8883
196 2 2.2208 2.50749 4.932 10.8875
197 1 -1.1104 3.89796 0.743281 12.2825
198 1 -1.1104 3.89785 0.743279 9.49369
206 1 -1.1104 6.68733 0.743284 12.2831
233 2 2.2208 10.8672 -3.44293 10.8886
350 2 2.2208 13.6653 4.93207 10.8875
63 2 2.2208 2.49877 -3.44281 8.09919
238 2 2.2208 8.10053 18.8902 8.09645
205 1 -1.1104 6.68448 -2.04833 12.2829
57 1 -1.1104 9.47962 3.53475 6.70394
200 1 -1.1104 6.68739 0.743252 9.4931
212 1 -1.1104 6.68439 -2.04832 9.49407
199 1 -1.1104 6.69029 3.53492 12.2821
201 1 -1.1104 6.69021 3.53488 9.49336
213 2 2.2208 10.873 2.14038 10.8879
214 1 -1.1104 12.2634 -2.04846 12.2829
215 1 -1.1104 12.2692 3.53496 12.2821
216 1 -1.1104 12.2633 -2.04847 9.49407
217 1 -1.1104 12.2691 3.53487 9.49335
218 1 -1.1104 12.2662 0.743225 12.2831
219 2 2.2208 10.8701 -0.651295 8.09888
220 2 2.2208 10.8758 4.93194 8.09814
221 1 -1.1104 12.2663 0.743198 9.4931
222 1 -1.1104 9.47386 -2.04838 12.2835
223 1 -1.1104 9.47967 3.53496 12.2828
224 2 2.2208 8.08351 2.14032 8.09852
225 1 -1.1104 9.47392 -2.04837 9.49347
226 1 -1.1104 9.47972 3.53487 9.49276
227 2 2.2208 8.08064 -0.651238 10.8883
228 2 2.2208 8.08641 4.93205 10.8876
229 1 -1.1104 9.47685 0.743266 12.2825
230 1 -1.1104 9.47677 0.743244 9.49372
55 2 2.2208 13.6623 2.14009 2.51957
349 2 2.2208 13.6652 4.93179 5.30866
115 2 2.2208 8.07768 -3.4429 2.52031
87 1 -1.1104 1.11412 6.3263 6.70348
117 2 2.2208 5.28821 -3.44283 5.30977
346 2 2.2208 -0.273502 13.307 10.8863
176 2 2.2208 2.49874 -3.44291 2.52032
342 2 2.2208 -0.276312 10.5151 8.0973
83 1 -1.1104 1.11981 11.9094 6.70272
243 2 2.2208 5.29981 7.72368 10.8872
244 2 2.2208 5.30547 13.307 10.8864
245 1 -1.1104 1.11706 9.1182 12.2813
246 1 -1.1104 1.117 9.11809 9.49251
247 1 -1.1104 1.11415 6.32654 12.2823
248 1 -1.1104 1.11981 11.9099 12.2815
249 2 2.2208 5.30262 10.5151 8.09739
250 1 -1.1104 1.11421 6.32646 9.49228
251 1 -1.1104 1.11985 11.9097 9.49153
252 1 -1.1104 3.90646 9.11825 12.2819
253 2 2.2208 2.51033 7.7235 8.09771
254 2 2.2208 2.51597 13.3066 8.09698
255 1 -1.1104 3.90652 9.11807 9.49195
256 2 2.2208 2.51317 10.5153 10.8867
257 1 -1.1104 3.9037 6.32655 12.2817
258 1 -1.1104 3.90934 11.9099 12.2809
259 1 -1.1104 3.90362 6.32647 9.49295
260 1 -1.1104 3.90931 11.9097 9.49221
267 1 -1.1104 6.69594 9.11815 9.4926
174 2 2.2208 8.07769 -3.44283 8.09922
332 1 -1.1104 6.70441 17.4938 12.2809
269 1 -1.1104 9.491 14.7022 12.2812
112 1 -1.1104 12.2719 6.32636 6.70354
114 1 -1.1104 12.2748 9.11798 6.70255
113 1 -1.1104 9.48535 9.1179 6.70319
116 1 -1.1104 9.48818 11.9095 6.70221
119 1 -1.1104 6.69593 9.11785 6.70256
261 1 -1.1104 6.69879 11.9098 9.4916
266 1 -1.1104 6.69308 6.3266 12.2824
270 1 -1.1104 6.69876 11.9101 12.2816
262 1 -1.1104 6.69598 9.11831 12.2813
273 1 -1.1104 6.69311 6.3265 9.49237
274 1 -1.1104 9.48821 11.91 9.49226
275 1 -1.1104 9.48251 6.32652 9.49299
276 1 -1.1104 9.48825 11.9103 12.281
277 1 -1.1104 9.48259 6.32669 12.2818
278 2 2.2208 8.0921 10.5154 10.8868
279 1 -1.1104 9.48541 9.11822 9.49197
280 2 2.2208 8.0949 13.3068 8.09705
281 2 2.2208 8.08923 7.72354 8.09776
282 2 2.2208 10.8787 7.72379 10.8872
283 2 2.2208 10.8843 13.3074 10.8864
284 1 -1.1104 12.2748 9.11853 12.2813
285 1 -1.1104 12.2748 9.11831 9.49259
286 1 -1.1104 12.2719 6.32671 12.2823
287 1 -1.1104 12.2776 11.9104 12.2816
288 2 2.2208 10.8815 10.5153 8.0974
289 1 -1.1104 12.272 6.32656 9.49235
290 1 -1.1104 12.2776 11.9101 9.49162
291 1 -1.1104 9.48535 9.11844 12.282
329 2 2.2208 10.8899 18.8915 10.8858
327 2 2.2208 8.10341 21.6831 10.8855
139 1 -1.1104 1.12259 14.7008 6.70182
143 1 -1.1104 3.91774 20.2837 6.70187
335 2 2.2208 -0.270737 16.0983 8.09665
326 1 -1.1104 9.49669 20.2866 12.2806
264 1 -1.1104 9.4966 20.2856 9.49076
338 2 2.2208 -0.265195 21.6814 8.09604
138 1 -1.1104 1.12539 17.4923 6.70211
145 1 -1.1104 1.12809 20.2837 6.70123
316 1 -1.1104 3.91212 14.7013 9.49124
299 1 -1.1104 1.12536 17.4934 12.2808
300 2 2.2208 2.51877 16.0986 10.886
301 2 2.2208 2.52437 21.6821 10.8853
302 1 -1.1104 3.91492 17.4934 12.2802
303 1 -1.1104 3.91771 20.2853 12.2805
304 1 -1.1104 3.9121 14.7017 12.2812
305 1 -1.1104 1.12818 20.2846 9.49118
306 1 -1.1104 1.12536 17.4929 9.49093
307 2 2.2208 5.31392 21.6815 8.09611
308 1 -1.1104 1.12263 14.7013 9.49182
309 2 2.2208 5.30825 16.0983 8.09669
310 1 -1.1104 1.12813 20.2852 12.2798
311 1 -1.1104 1.12264 14.7016 12.2805
312 2 2.2208 5.31108 18.8906 10.8857
313 1 -1.1104 3.91766 20.2846 9.49062
314 2 2.2208 2.52155 18.8897 8.09635
315 1 -1.1104 3.91493 17.493 9.49155
239 1 -1.1104 6.70161 14.7019 12.2806
331 1 -1.1104 6.70732 20.285 9.49137
325 1 -1.1104 12.2832 17.4947 12.2809
179 2 2.2208 10.8871 16.0987 8.09678
323 1 -1.1104 12.2832 17.494 9.49107
328 1 -1.1104 9.49385 17.4943 12.2802
207 1 -1.1104 12.2861 20.2861 9.49152
271 2 2.2208 8.09772 16.0991 10.8861
208 2 2.2208 10.8928 21.6825 8.09637
236 1 -1.1104 12.2804 14.7025 12.2806
171 1 -1.1104 9.49677 20.2843 6.70212
322 1 -1.1104 12.2804 14.7013 6.70194
173 1 -1.1104 9.49104 14.7011 6.70252
330 1 -1.1104 9.49101 14.7018 9.49128
319 1 -1.1104 9.49389 17.4937 9.49166
317 1 -1.1104 6.70161 14.7015 9.49192
413 2 2.2208 13.6594 -0.651504 -0.269516
552 2 2.2208 2.50165 -0.651424 -0.269498
669 2 2.2208 8.09766 16.0972 -0.271835
699 2 2.2208 13.6652 4.9316 -0.270285
584 2 2.2208 10.8729 2.14009 -0.269878
585 2 2.2208 8.08631 4.93159 -0.270252
563 2 2.2208 8.08056 -0.651414 -0.269498
587 2 2.2208 5.30539 13.3059 -0.271484
588 2 2.2208 5.29972 7.72307 -0.270686
611 2 2.2208 2.51312 10.5145 -0.27111
556 2 2.2208 5.28819 -3.44292 -0.269151
636 2 2.2208 10.8786 7.7231 -0.270672
637 2 2.2208 10.8843 13.3059 -0.271469
681 2 2.2208 8.10327 21.6795 -0.272476
685 2 2.2208 -0.267876 18.8885 -0.272199
641 2 2.2208 2.51876 16.0972 -0.271863
696 2 2.2208 -0.273504 13.3059 -0.271503
411 2 2.2208 10.8671 -3.443 -0.269157
553 2 2.2208 5.294 2.14009 -0.269867
554 2 2.2208 2.50741 4.93159 -0.27032
613 2 2.2208 8.092 10.5145 -0.271081
665 2 2.2208 5.31102 18.8884 -0.272201
664 2 2.2208 2.52441 21.6795 -0.272542
668 2 2.2208 10.8899 18.8885 -0.272132
351 2 2.2208 5.29407 2.14036 16.4667
352 1 -1.1104 1.10551 -2.04843 17.8617
353 1 -1.1104 1.11138 3.53479 17.8608
354 1 -1.1104 1.10544 -2.04838 15.0729
355 1 -1.1104 1.11128 3.53487 15.0721
356 1 -1.1104 1.10837 0.743172 17.8619
357 2 2.2208 5.29114 -0.651291 19.2565
358 2 2.2208 5.29692 4.93188 19.2557
359 1 -1.1104 1.10848 0.743232 15.0719
360 1 -1.1104 3.89488 -2.04837 17.8623
361 1 -1.1104 3.90072 3.53481 17.8615
362 2 2.2208 2.50459 2.14027 19.2561
363 1 -1.1104 3.89499 -2.04834 15.0722
364 1 -1.1104 3.90085 3.5349 15.0715
365 2 2.2208 2.50168 -0.65128 16.4671
366 2 2.2208 2.50749 4.93198 16.4663
367 1 -1.1104 3.89792 0.743188 17.8613
368 1 -1.1104 3.89784 0.743263 15.0725
443 2 2.2208 13.6566 -3.44303 19.2569
384 2 2.2208 5.2882 -3.44283 16.4674
370 1 -1.1104 1.10543 -2.04844 20.6517
382 2 2.2208 13.6565 -3.44308 24.8357
372 1 -1.1104 6.69021 3.53492 15.0721
378 1 -1.1104 6.68737 0.743153 20.6507
697 2 2.2208 -0.265083 21.6798 24.8322
377 1 -1.1104 3.9008 3.5347 20.6503
376 1 -1.1104 1.10846 0.743135 20.6507
374 1 -1.1104 3.89498 -2.04841 20.6511
375 1 -1.1104 1.11122 3.53471 20.6509
371 1 -1.1104 3.89781 0.743135 20.6513
381 1 -1.1104 6.69013 3.5347 20.651
676 2 2.2208 8.10044 18.8886 24.8325
530 1 -1.1104 9.4936 17.4927 20.6487
380 1 -1.1104 6.6873 0.743228 17.8619
379 1 -1.1104 6.6874 0.743283 15.0719
373 1 -1.1104 6.68438 -2.04834 15.0729
386 1 -1.1104 6.68445 -2.04837 17.8617
369 1 -1.1104 6.69029 3.53485 17.8609
387 2 2.2208 10.873 2.14037 16.4667
388 1 -1.1104 12.2633 -2.04849 17.8617
389 1 -1.1104 12.2692 3.53486 17.8609
390 1 -1.1104 12.2633 -2.04845 15.0729
391 1 -1.1104 12.2691 3.53494 15.0721
392 1 -1.1104 12.2662 0.743165 17.8619
393 2 2.2208 10.8701 -0.651347 19.2565
394 2 2.2208 10.8758 4.93192 19.2557
395 1 -1.1104 12.2663 0.743237 15.0719
396 1 -1.1104 9.47381 -2.04843 17.8623
397 1 -1.1104 9.47961 3.53486 17.8615
398 2 2.2208 8.08351 2.1403 19.2561
399 1 -1.1104 9.47392 -2.04838 15.0723
400 1 -1.1104 9.47975 3.53496 15.0715
401 2 2.2208 8.08062 -0.651258 16.4671
402 2 2.2208 8.08639 4.93204 16.4663
403 1 -1.1104 9.47684 0.743206 17.8613
404 1 -1.1104 9.47677 0.743268 15.0725
409 1 -1.1104 12.2633 -2.04854 20.6517
407 1 -1.1104 12.269 3.5347 20.6509
692 2 2.2208 -0.273488 13.3063 22.0438
689 2 2.2208 -0.267998 18.8904 16.4641
410 1 -1.1104 9.4739 -2.04845 20.6511
385 1 -1.1104 6.68437 -2.04842 20.6517
408 1 -1.1104 12.2663 0.743082 20.6507
406 1 -1.1104 9.47671 0.743122 20.6513
565 2 2.2208 13.6595 -0.651433 22.0459
414 2 2.2208 5.29978 7.72367 16.4659
415 2 2.2208 5.30542 13.3071 16.465
416 1 -1.1104 1.11706 9.11801 17.86
417 1 -1.1104 1.11695 9.11817 15.0712
418 1 -1.1104 1.11411 6.32641 17.861
419 1 -1.1104 1.11973 11.9097 17.8602
420 2 2.2208 5.30258 10.5151 19.2548
421 1 -1.1104 1.11421 6.3265 15.071
422 1 -1.1104 1.11988 11.9099 15.0702
423 1 -1.1104 3.9064 9.11808 17.8607
424 2 2.2208 2.51033 7.72345 19.2552
425 2 2.2208 2.51594 13.3067 19.2544
426 1 -1.1104 3.90653 9.11822 15.0707
427 2 2.2208 2.51315 10.5153 16.4654
428 1 -1.1104 3.9037 6.32642 17.8605
429 1 -1.1104 3.90934 11.9097 17.8596
430 1 -1.1104 3.90359 6.32656 15.0717
431 1 -1.1104 3.90924 11.9099 15.0709
687 2 2.2208 -0.273528 13.3069 16.465
432 1 -1.1104 3.9092 11.9094 20.6496
434 1 -1.1104 3.90652 9.11783 20.6494
447 1 -1.1104 6.69582 9.11788 20.6501
446 1 -1.1104 6.69312 6.32629 20.6499
435 1 -1.1104 6.69314 6.32662 15.0711
439 1 -1.1104 6.69865 11.9098 17.8602
436 1 -1.1104 6.69596 9.11815 17.86
438 1 -1.1104 6.69588 9.11833 15.0713
440 1 -1.1104 6.69881 11.9101 15.0702
444 1 -1.1104 6.693 6.32649 17.8611
448 2 2.2208 10.8787 7.72378 16.4659
449 2 2.2208 10.8843 13.3074 16.465
450 1 -1.1104 12.2748 9.11826 17.86
451 1 -1.1104 12.2747 9.11849 15.0713
452 1 -1.1104 12.2719 6.32654 17.8611
453 1 -1.1104 12.2775 11.91 17.8602
454 2 2.2208 10.8815 10.5152 19.2548
455 1 -1.1104 12.272 6.3267 15.0711
456 1 -1.1104 12.2776 11.9104 15.0702
457 1 -1.1104 9.48526 9.11823 17.8607
458 2 2.2208 8.0892 7.72354 19.2553
459 2 2.2208 8.09485 13.3068 19.2544
460 1 -1.1104 9.48542 9.11845 15.0707
461 2 2.2208 8.09204 10.5155 16.4655
462 1 -1.1104 9.48258 6.32655 17.8605
463 1 -1.1104 9.48825 11.91 17.8596
464 1 -1.1104 9.48248 6.32668 15.0717
465 1 -1.1104 9.48812 11.9103 15.0709
470 1 -1.1104 12.2747 9.11794 20.6501
445 1 -1.1104 6.69882 11.9094 20.649
469 1 -1.1104 12.2777 11.9096 20.649
640 1 -1.1104 12.2803 14.7003 26.2282
466 1 -1.1104 9.48807 11.9095 20.6496
690 2 2.2208 -0.265185 21.6813 19.253
473 2 2.2208 5.31105 18.8906 16.4641
474 1 -1.1104 1.12268 14.7013 17.8591
475 1 -1.1104 1.12827 20.2846 17.8583
476 1 -1.1104 1.12254 14.7016 15.0704
477 1 -1.1104 1.12806 20.2852 15.0696
478 1 -1.1104 1.12527 17.493 17.8593
479 2 2.2208 5.30822 16.0983 19.2539
480 2 2.2208 5.31381 21.6815 19.253
481 1 -1.1104 1.12543 17.4934 15.0694
482 1 -1.1104 3.91199 14.7014 17.8598
483 1 -1.1104 3.91755 20.2847 17.8589
484 2 2.2208 2.52153 18.8898 19.2535
485 1 -1.1104 3.91215 14.7017 15.0698
486 1 -1.1104 3.9178 20.2853 15.069
487 2 2.2208 2.51874 16.0987 16.4646
488 2 2.2208 2.52435 21.6821 16.4637
489 1 -1.1104 3.91499 17.4931 17.8587
490 1 -1.1104 3.91483 17.4935 15.0701
491 1 -1.1104 3.91777 20.2838 20.6476
688 2 2.2208 -0.270737 16.0982 19.2539
493 1 -1.1104 1.12802 20.2838 20.6483
501 1 -1.1104 6.7015 14.7019 15.0705
506 1 -1.1104 6.70717 20.2859 15.0697
495 1 -1.1104 6.70164 14.7016 17.8591
499 1 -1.1104 6.70733 20.2851 17.8582
500 1 -1.1104 6.70425 17.4933 17.8593
497 1 -1.1104 6.70143 14.701 20.6491
504 1 -1.1104 6.70448 17.4938 15.0694
507 2 2.2208 10.8899 18.8914 16.4641
508 1 -1.1104 12.2805 14.7019 17.8591
509 1 -1.1104 12.2861 20.286 17.8581
510 1 -1.1104 12.2803 14.7024 15.0704
511 1 -1.1104 12.2858 20.2872 15.0696
512 1 -1.1104 12.283 17.4938 17.8592
513 2 2.2208 10.887 16.0986 19.2539
514 2 2.2208 10.8926 21.6822 19.2528
515 1 -1.1104 12.2832 17.4946 15.0694
516 1 -1.1104 9.49086 14.7018 17.8597
517 1 -1.1104 9.49642 20.2856 17.8588
518 2 2.2208 8.10045 18.8902 19.2534
519 1 -1.1104 9.49106 14.7022 15.0698
520 1 -1.1104 9.49677 20.2867 15.0689
521 2 2.2208 8.09767 16.0991 16.4646
522 2 2.2208 8.10334 21.6831 16.4636
523 1 -1.1104 9.49392 17.4937 17.8586
524 1 -1.1104 9.49374 17.4943 15.0701
527 1 -1.1104 12.2857 20.2844 20.6481
502 1 -1.1104 6.70694 20.284 20.6482
505 1 -1.1104 6.70445 17.4926 20.6481
528 1 -1.1104 12.2802 14.7012 20.6491
525 1 -1.1104 9.49669 20.2843 20.6475
526 1 -1.1104 9.49107 14.7011 20.6485
678 2 2.2208 10.8898 18.8894 22.0429
9510 2 2.2208 13.668 7.72316 24.8342
700 2 2.2208 13.6652 4.93175 22.0451
683 2 2.2208 13.6595 -0.651352 16.4671
698 2 2.2208 -0.2763 10.515 19.2548
533 2 2.2208 5.29401 2.1402 22.0455
534 1 -1.1104 1.10552 -2.0485 23.4405
535 1 -1.1104 1.11132 3.53458 23.4397
536 1 -1.1104 1.10543 -2.04852 26.2306
537 1 -1.1104 1.11119 3.53452 26.2298
538 1 -1.1104 1.10833 0.743052 23.4408
539 2 2.2208 5.2911 -0.651389 24.8354
540 1 -1.1104 1.10842 0.742997 26.2296
541 1 -1.1104 3.89488 -2.04846 23.4412
542 1 -1.1104 3.90065 3.53459 23.4404
543 2 2.2208 2.50454 2.14012 24.835
544 1 -1.1104 3.89496 -2.04849 26.23
545 1 -1.1104 3.90074 3.53451 26.2292
546 2 2.2208 2.50167 -0.65136 22.0459
547 2 2.2208 2.50744 4.93174 22.0451
548 1 -1.1104 3.89788 0.743062 23.4402
549 1 -1.1104 3.89778 0.743022 26.2303
550 2 2.2208 5.29686 4.93162 24.8346
472 2 2.2208 2.49873 -3.44287 19.2569
383 2 2.2208 2.49873 -3.44293 24.8358
551 1 -1.1104 6.68732 0.74301 26.2296
562 1 -1.1104 6.68723 0.743065 23.4408
558 2 2.2208 13.6623 2.14008 24.835
564 1 -1.1104 9.47968 3.53472 20.6503
610 1 -1.1104 12.2832 17.4915 26.2272
9511 2 2.2208 13.6681 7.72356 19.2553
560 1 -1.1104 6.6901 3.53451 26.2299
670 2 2.2208 13.6652 4.93205 16.4663
561 1 -1.1104 6.68434 -2.0485 26.2306
555 1 -1.1104 6.68443 -2.04846 23.4405
559 1 -1.1104 6.69022 3.5346 23.4398
566 2 2.2208 10.8729 2.14019 22.0456
567 1 -1.1104 12.2633 -2.04857 23.4405
568 1 -1.1104 12.2691 3.53458 23.4398
569 1 -1.1104 12.2632 -2.0486 26.2306
570 1 -1.1104 12.269 3.53452 26.2299
571 1 -1.1104 12.2661 0.742999 23.4408
572 2 2.2208 10.87 -0.651444 24.8354
573 2 2.2208 10.8757 4.93165 24.8346
574 1 -1.1104 12.2662 0.742978 26.2296
575 1 -1.1104 9.47381 -2.0485 23.4412
576 1 -1.1104 9.47955 3.5346 23.4404
577 2 2.2208 8.08344 2.14014 24.835
578 1 -1.1104 9.47387 -2.04853 26.23
579 1 -1.1104 9.47964 3.53452 26.2293
580 2 2.2208 8.08058 -0.651353 22.0459
581 2 2.2208 8.08633 4.93176 22.0451
582 1 -1.1104 9.47678 0.743055 23.4402
583 1 -1.1104 9.47666 0.742995 26.2303
529 1 -1.1104 12.2833 17.4928 20.648
405 2 2.2208 13.6624 2.14025 19.2561
412 2 2.2208 8.07767 -3.44289 19.2569
639 2 2.2208 5.28821 -3.44288 22.0463
442 1 -1.1104 1.11422 6.32625 20.6498
433 1 -1.1104 1.11692 9.11781 20.65
437 1 -1.1104 3.90355 6.32627 20.6505
441 1 -1.1104 1.11991 11.9093 20.649
590 2 2.2208 5.29974 7.72328 22.0447
591 2 2.2208 5.30542 13.3063 22.0438
592 1 -1.1104 1.11706 9.1176 23.4389
593 1 -1.1104 1.11692 9.11746 26.229
594 1 -1.1104 1.11407 6.32611 23.4399
595 1 -1.1104 1.11975 11.909 23.4391
596 2 2.2208 5.30257 10.5146 24.8338
597 1 -1.1104 1.11418 6.32599 26.2288
598 1 -1.1104 1.11986 11.9089 26.228
599 1 -1.1104 3.90638 9.1176 23.4395
600 2 2.2208 2.51028 7.72312 24.8341
601 2 2.2208 2.51596 13.306 24.8333
602 1 -1.1104 3.90647 9.11744 26.2284
603 2 2.2208 2.51315 10.5148 22.0443
604 1 -1.1104 3.90362 6.3261 23.4393
605 1 -1.1104 3.90935 11.909 23.4385
606 1 -1.1104 3.90352 6.326 26.2294
607 1 -1.1104 3.9092 11.9088 26.2286
531 2 2.2208 10.8671 -3.44294 16.4674
694 2 2.2208 -0.276318 10.5146 24.8337
612 2 2.2208 8.07766 -3.44295 24.8357
467 1 -1.1104 9.48541 9.11792 20.6495
468 1 -1.1104 12.272 6.32632 20.6499
608 1 -1.1104 6.69579 9.11746 26.229
609 1 -1.1104 6.69864 11.9091 23.4391
616 1 -1.1104 6.69595 9.11761 23.4389
617 1 -1.1104 6.69294 6.3261 23.44
615 1 -1.1104 6.69875 11.9089 26.228
614 1 -1.1104 6.69306 6.326 26.2288
471 1 -1.1104 9.48241 6.32631 20.6505
618 1 -1.1104 9.48524 9.11763 23.4395
619 1 -1.1104 12.2776 11.9089 26.228
620 1 -1.1104 12.2719 6.32602 26.2288
621 2 2.2208 10.8814 10.5146 24.8338
622 1 -1.1104 12.2775 11.9091 23.4391
623 1 -1.1104 12.2718 6.32612 23.44
624 1 -1.1104 12.2747 9.11749 26.229
625 1 -1.1104 12.2748 9.11765 23.4389
626 1 -1.1104 9.48809 11.9089 26.2286
627 1 -1.1104 9.4824 6.32602 26.2295
628 1 -1.1104 9.48823 11.9091 23.4385
629 1 -1.1104 9.4825 6.32614 23.4393
630 2 2.2208 8.09203 10.5149 22.0443
631 1 -1.1104 9.48533 9.11749 26.2284
632 2 2.2208 8.09485 13.306 24.8333
633 2 2.2208 8.08915 7.72315 24.8342
634 2 2.2208 10.8786 7.72332 22.0447
635 2 2.2208 10.8843 13.3064 22.0438
638 2 2.2208 10.8671 -3.44298 22.0463
677 1 -1.1104 12.2859 20.2826 26.2275
675 1 -1.1104 12.286 20.2831 23.4371
674 1 -1.1104 12.2805 14.7006 23.438
492 1 -1.1104 1.12253 14.7009 20.6492
496 1 -1.1104 1.1255 17.4923 20.6481
642 1 -1.1104 6.70422 17.4918 23.4382
684 2 2.2208 -0.267921 18.8891 22.043
498 1 -1.1104 3.91474 17.4924 20.6487
494 1 -1.1104 3.91218 14.7009 20.6485
644 2 2.2208 2.52433 21.6804 22.0425
645 1 -1.1104 3.91497 17.4918 23.4376
646 1 -1.1104 1.12533 17.4918 23.4382
647 1 -1.1104 3.91213 14.7002 26.2276
648 1 -1.1104 3.91483 17.4915 26.2278
649 2 2.2208 2.52158 18.8886 24.8325
650 1 -1.1104 3.91775 20.2826 26.2268
651 2 2.2208 5.311 18.8892 22.0429
652 1 -1.1104 1.12272 14.7004 23.438
653 1 -1.1104 1.12831 20.283 23.4372
654 2 2.2208 5.30821 16.0973 24.8329
655 2 2.2208 5.3138 21.6798 24.8321
656 1 -1.1104 1.12257 14.7002 26.2282
657 1 -1.1104 1.12549 17.4915 26.2272
658 1 -1.1104 1.12818 20.2826 26.2274
659 1 -1.1104 3.91202 14.7005 23.4386
660 1 -1.1104 3.91755 20.283 23.4378
661 2 2.2208 2.51876 16.0977 22.0434
682 1 -1.1104 6.70438 17.4914 26.2272
663 1 -1.1104 6.7072 20.2831 23.4371
673 2 2.2208 10.8871 16.0974 24.8329
586 2 2.2208 8.09765 16.0979 22.0434
691 2 2.2208 -0.27067 16.0973 24.8329
666 1 -1.1104 9.49386 17.4919 23.4376
667 1 -1.1104 9.49103 14.7002 26.2276
679 1 -1.1104 12.283 17.4919 23.4382
532 1 -1.1104 9.4937 17.4915 26.2278
557 1 -1.1104 9.49661 20.2826 26.2268
680 1 -1.1104 6.70163 14.7005 23.438
671 1 -1.1104 9.49087 14.7005 23.4386
643 1 -1.1104 6.70705 20.2826 26.2274
662 1 -1.1104 6.70146 14.7002 26.2282
503 2 2.2208 10.8926 21.6798 24.8321
672 1 -1.1104 9.49636 20.2832 23.4377
589 2 2.2208 8.10318 21.6806 22.0424
150 2 2.2208 13.6566 -3.44301 13.6781
235 2 2.2208 13.6624 2.14038 13.6773
9159 2 2.2208 13.6681 7.72388 13.6765
321 2 2.2208 8.10054 18.8914 13.6749
62 2 2.2208 2.49875 -3.44282 13.678
203 2 2.2208 2.50463 2.14039 13.6773
202 2 2.2208 5.29696 4.93205 13.6769
232 2 2.2208 8.08354 2.14041 13.6773
58 2 2.2208 10.8701 -0.651279 13.6777
210 2 2.2208 10.8758 4.93212 13.6769
263 2 2.2208 2.51033 7.72368 13.6765
241 2 2.2208 2.51597 13.3071 13.6757
336 2 2.2208 -0.276307 10.5153 13.676
234 2 2.2208 8.07768 -3.44286 13.678
293 2 2.2208 10.8871 16.0996 13.6753
292 2 2.2208 10.8815 10.5157 13.6761
240 2 2.2208 5.30263 10.5154 13.6761
204 2 2.2208 5.29117 -0.651221 13.6777
272 2 2.2208 8.09489 13.3074 13.6757
268 2 2.2208 8.08924 7.72381 13.6765
296 2 2.2208 2.52154 18.8906 13.6749
347 2 2.2208 -0.265254 21.6825 13.6745
297 2 2.2208 5.30825 16.099 13.6753
334 2 2.2208 -0.270751 16.0988 13.6753
318 2 2.2208 5.31394 21.6829 13.6745
294 2 2.2208 10.8927 21.6844 13.6745
701 2 2.2208 5.31678 24.4717 5.30647
702 2 2.2208 5.3229 30.0537 5.30598
703 1 -1.1104 1.13386 25.8646 1.12142
704 1 -1.1104 1.13387 25.8651 3.91172
705 1 -1.1104 1.13104 23.0737 1.12238
706 1 -1.1104 1.13679 28.6554 1.12169
707 2 2.2208 5.31966 27.2617 2.51668
708 1 -1.1104 1.13096 23.0742 3.91144
709 1 -1.1104 1.13664 28.656 3.91079
710 1 -1.1104 3.92334 25.8645 1.12207
711 2 2.2208 2.52726 24.4708 2.51681
712 2 2.2208 2.53336 30.0526 2.51625
713 1 -1.1104 3.92328 25.8649 3.91115
714 2 2.2208 2.53017 27.2627 5.30611
715 1 -1.1104 3.9205 23.0736 1.12178
716 1 -1.1104 3.9262 28.6552 1.12108
717 1 -1.1104 3.92056 23.074 3.91206
718 1 -1.1104 3.92635 28.6557 3.91149
1025 2 2.2208 -0.25931 27.2619 2.51656
725 1 -1.1104 3.9235 25.8661 6.70139
724 1 -1.1104 3.92614 28.6569 6.70045
880 1 -1.1104 6.71283 25.8663 6.70089
1031 2 2.2208 -0.262311 24.4718 5.30638
1024 2 2.2208 -0.256382 30.0539 5.30585
727 1 -1.1104 1.13364 25.8663 6.70072
726 1 -1.1104 1.13104 23.075 6.70155
879 1 -1.1104 1.13674 28.6572 6.70105
722 1 -1.1104 6.71276 25.8644 1.12155
721 1 -1.1104 6.71571 28.6556 3.91107
731 1 -1.1104 6.71299 25.865 3.91198
728 1 -1.1104 6.70995 23.0741 3.91153
719 1 -1.1104 6.70998 23.0736 1.12246
720 1 -1.1104 6.71569 28.6552 1.12196
733 2 2.2208 10.8956 24.4725 5.3069
734 2 2.2208 10.9015 30.0554 5.30723
735 1 -1.1104 12.2915 25.8645 1.12192
736 1 -1.1104 12.292 25.8657 3.9125
737 1 -1.1104 12.2889 23.0737 1.12269
738 1 -1.1104 12.2945 28.6551 1.12245
739 2 2.2208 10.8984 27.2621 2.51726
740 1 -1.1104 12.2888 23.0746 3.91186
741 1 -1.1104 12.2944 28.6564 3.91197
742 1 -1.1104 9.50225 25.8645 1.12239
743 2 2.2208 8.10617 24.4709 2.51705
744 2 2.2208 8.11204 30.0528 2.51696
745 1 -1.1104 9.50221 25.8653 3.91159
746 2 2.2208 8.10922 27.2633 5.30658
747 1 -1.1104 9.49937 23.0736 1.12195
748 1 -1.1104 9.50493 28.655 1.12161
749 1 -1.1104 9.49959 23.0744 3.91237
750 1 -1.1104 9.50552 28.6562 3.91231
732 1 -1.1104 6.7102 23.0752 6.70179
752 1 -1.1104 12.2915 25.868 6.70154
755 1 -1.1104 9.50272 25.8672 6.70204
729 1 -1.1104 6.7162 28.6573 6.70156
751 1 -1.1104 9.50521 28.6582 6.70129
759 2 2.2208 5.33059 35.6355 5.30516
760 1 -1.1104 1.13986 31.4461 1.12048
761 1 -1.1104 1.14715 37.0271 1.11842
762 1 -1.1104 1.13986 31.4465 3.91105
763 1 -1.1104 1.14702 37.0269 3.90974
764 1 -1.1104 1.14318 34.2367 1.1207
765 2 2.2208 5.32613 32.8436 2.51631
766 2 2.2208 5.33461 38.427 2.51483
767 1 -1.1104 1.14316 34.2368 3.90955
768 1 -1.1104 3.92925 31.446 1.12139
769 1 -1.1104 3.9358 37.0278 1.12001
770 2 2.2208 2.5412 35.6341 2.51524
771 1 -1.1104 3.92927 31.4461 3.91037
772 1 -1.1104 3.93636 37.0264 3.90832
773 2 2.2208 2.53697 32.8443 5.30535
774 2 2.2208 2.54772 38.425 5.30333
775 1 -1.1104 3.93253 34.2365 1.11998
776 1 -1.1104 3.93268 34.2365 3.91068
784 1 -1.1104 1.14692 37.0276 6.69838
1030 2 2.2208 -0.248522 35.6343 5.30459
780 1 -1.1104 6.72492 37.0273 1.11956
1028 2 2.2208 -0.252667 32.8432 2.51577
787 1 -1.1104 3.92955 31.4474 6.70091
786 1 -1.1104 1.14319 34.2381 6.70042
1027 2 2.2208 -0.24285 38.4229 2.51353
790 1 -1.1104 6.71888 31.4475 6.70042
983 1 -1.1104 9.52378 39.8561 12.2774
777 1 -1.1104 6.71902 31.4461 3.91157
778 1 -1.1104 6.72166 34.2366 1.12141
792 1 -1.1104 6.72284 34.2376 6.70119
782 1 -1.1104 6.72198 34.236 3.91026
783 1 -1.1104 6.71854 31.4456 1.12104
781 1 -1.1104 6.7251 37.0264 3.91038
793 2 2.2208 10.9074 35.6385 5.30776
794 1 -1.1104 12.2969 31.4451 1.12203
795 1 -1.1104 12.302 37.0255 1.12181