ITEM: TIMESTEP
261
ITEM: NUMBER OF ATOMS
17648
ITEM: BOX BOUNDS pp pp pp
-2.7717828229332220e-01 2.7617178282293317e+01
-3.4472205766305355e+00 3.3152722057663055e+02
-2.7717827830221448e-01 2.7617178278302212e+01
ITEM: ATOMS id type q x y z
1 2 2.2208 5.29755 2.13861 5.30138
2 1 -1.1104 1.10925 -2.05056 1.1171
3 1 -1.1104 1.11475 3.53281 1.11685
6 1 -1.1104 1.10923 -2.05052 3.90717
7 1 -1.1104 1.11474 3.53286 3.90691
10 1 -1.1104 1.11198 0.741127 1.11757
12 2 2.2208 5.29482 -0.653146 2.51204
13 2 2.2208 5.30031 4.93019 2.5118
14 1 -1.1104 1.11201 0.741166 3.90644
16 1 -1.1104 3.89869 -2.05053 1.1177
17 1 -1.1104 3.90421 3.5328 1.11743
18 2 2.2208 2.5081 2.1385 2.51194
19 1 -1.1104 3.89872 -2.05049 3.90655
20 1 -1.1104 3.90421 3.53289 3.90632
21 2 2.2208 2.50536 -0.653131 5.30153
22 2 2.2208 2.51081 4.93028 5.30128
23 1 -1.1104 3.90145 0.741148 1.11693
24 1 -1.1104 3.90146 0.741202 3.90701
5 1 -1.1104 6.69369 3.53285 1.11682
15 1 -1.1104 6.69094 0.741239 3.90638
25 1 -1.1104 1.10927 -2.05047 6.69603
31 1 -1.1104 3.89872 -2.05043 6.69661
32 1 -1.1104 3.90415 3.53301 6.69637
26 1 -1.1104 1.11469 3.53301 6.69578
29 1 -1.1104 1.11198 0.741273 6.69648
11 1 -1.1104 6.69091 0.741189 1.11751
27 1 -1.1104 6.68818 -2.05042 6.69596
9 1 -1.1104 6.69368 3.5329 3.90688
33 1 -1.1104 3.90143 0.741297 6.69586
30 1 -1.1104 6.69088 0.741317 6.69643
28 1 -1.1104 6.69361 3.53305 6.69575
8455 2 2.2208 10.8709 -3.44482 5.30159
8451 2 2.2208 13.6604 -3.44491 2.51215
8 1 -1.1104 6.68814 -2.05046 3.90712
4 1 -1.1104 6.68818 -2.05049 1.11708
34 2 2.2208 10.8765 2.13864 5.30132
35 1 -1.1104 12.2671 -2.05051 1.11705
36 1 -1.1104 12.2726 3.53297 1.11678
37 1 -1.1104 12.267 -2.05048 3.90707
38 1 -1.1104 12.2726 3.533 3.90682
39 1 -1.1104 12.2698 0.741234 1.11748
40 2 2.2208 10.8737 -0.65314 2.51201
41 2 2.2208 10.8792 4.9303 2.5118
42 1 -1.1104 12.2698 0.741262 3.90634
43 1 -1.1104 9.4776 -2.0505 1.11766
44 1 -1.1104 9.48314 3.53288 1.11743
45 2 2.2208 8.08704 2.13855 2.5119
46 1 -1.1104 9.4776 -2.05046 3.90652
47 1 -1.1104 9.48314 3.53294 3.90628
48 2 2.2208 8.08426 -0.653094 5.30146
49 2 2.2208 8.08973 4.93033 5.30126
50 1 -1.1104 9.4804 0.741195 1.11692
51 1 -1.1104 9.48039 0.74124 3.90697
55 1 -1.1104 9.47758 -2.05042 6.69654
333 2 2.2208 13.6659 2.13863 2.51184
52 1 -1.1104 12.267 -2.05043 6.69594
56 1 -1.1104 9.48308 3.53302 6.69631
229 2 2.2208 10.8737 -0.652966 13.6697
53 1 -1.1104 12.2725 3.53312 6.69566
54 1 -1.1104 12.2698 0.741341 6.69637
334 2 2.2208 13.6631 -0.653108 5.30143
206 2 2.2208 2.50257 -3.44472 13.67
8458 2 2.2208 2.50262 -3.44478 8.09112
61 2 2.2208 5.30297 7.72196 5.30117
62 2 2.2208 5.30831 13.3051 5.30092
63 1 -1.1104 1.12015 9.11608 1.11657
65 1 -1.1104 1.12011 9.11617 3.90662
67 1 -1.1104 1.11744 6.32446 1.1173
68 1 -1.1104 1.12277 11.9077 1.11697
73 2 2.2208 5.30568 10.5134 2.51156
74 1 -1.1104 1.11744 6.32453 3.90621
75 1 -1.1104 1.12272 11.9078 3.90593
78 1 -1.1104 3.9096 9.11604 1.11716
79 2 2.2208 2.51353 7.72181 2.51168
80 2 2.2208 2.51884 13.3049 2.51139
81 1 -1.1104 3.90958 9.11614 3.90607
82 2 2.2208 2.51613 10.5136 5.30101
83 1 -1.1104 3.90693 6.32445 1.11674
84 1 -1.1104 3.91229 11.9076 1.11643
86 1 -1.1104 3.90691 6.32453 3.90679
87 1 -1.1104 3.91224 11.9077 3.9065
92 1 -1.1104 3.90953 9.11634 6.69613
69 1 -1.1104 1.12268 11.908 6.69595
77 1 -1.1104 6.70173 11.9077 3.90597
70 1 -1.1104 6.69639 6.32447 1.11734
85 1 -1.1104 3.91216 11.9079 6.69542
90 1 -1.1104 1.1174 6.32471 6.69623
76 1 -1.1104 6.69638 6.32457 3.90622
64 1 -1.1104 6.6991 9.11604 1.11663
71 1 -1.1104 6.70179 11.9076 1.11705
72 1 -1.1104 6.70172 11.9079 6.69606
66 1 -1.1104 6.69908 9.11617 3.90671
91 1 -1.1104 6.69635 6.32471 6.69626
94 2 2.2208 10.8819 7.72209 5.30121
95 2 2.2208 10.8873 13.3054 5.30104
96 1 -1.1104 12.278 9.11629 1.11664
97 1 -1.1104 12.278 9.11643 3.90677
98 1 -1.1104 12.2753 6.32464 1.11732
99 1 -1.1104 12.2807 11.9079 1.11716
101 2 2.2208 10.8847 10.5136 2.51165
102 1 -1.1104 12.2753 6.32474 3.90618
103 1 -1.1104 12.2807 11.9081 3.90607
104 1 -1.1104 9.48857 9.11614 1.11726
105 2 2.2208 8.09248 7.72188 2.51172
106 2 2.2208 8.09786 13.305 2.51149
107 1 -1.1104 9.48856 9.11627 3.90615
108 2 2.2208 8.09514 10.5136 5.30111
109 1 -1.1104 9.48587 6.32455 1.11672
110 1 -1.1104 9.49128 11.9077 1.11651
112 1 -1.1104 9.48586 6.32462 3.90681
113 1 -1.1104 9.49126 11.9079 3.90665
116 1 -1.1104 12.2753 6.32487 6.69624
117 1 -1.1104 9.48854 9.11645 6.69625
115 1 -1.1104 12.278 9.11665 6.69562
8457 2 2.2208 8.08151 -3.44484 2.51218
111 1 -1.1104 9.49119 11.9081 6.69551
8460 2 2.2208 5.29207 -3.44482 5.30164
100 1 -1.1104 12.2807 11.9084 6.69619
89 1 -1.1104 6.69902 9.11635 6.6956
121 2 2.2208 5.31373 18.8879 5.30085
122 1 -1.1104 1.12542 14.6991 1.11627
124 1 -1.1104 1.13055 20.2817 1.11628
127 1 -1.1104 1.1254 14.6993 3.90633
128 1 -1.1104 1.13071 20.282 3.90634
130 1 -1.1104 1.12802 17.4905 1.11674
133 2 2.2208 5.311 16.0963 2.51135
134 2 2.2208 5.31633 21.6787 2.51137
135 1 -1.1104 1.128 17.4907 3.90578
137 1 -1.1104 3.91491 14.699 1.11687
139 1 -1.1104 3.92012 20.2815 1.11677
141 2 2.2208 2.52411 18.8877 2.51129
142 1 -1.1104 3.91489 14.6991 3.90581
143 1 -1.1104 3.92019 20.2817 3.90582
144 2 2.2208 2.52148 16.0966 5.30081
145 2 2.2208 2.52685 21.6793 5.30091
146 1 -1.1104 3.91754 17.4903 1.11623
148 1 -1.1104 3.91759 17.4905 3.90635
131 1 -1.1104 1.12807 17.4911 6.69579
123 1 -1.1104 1.1253 14.6996 6.69531
138 1 -1.1104 3.91489 14.6994 6.69589
149 1 -1.1104 6.70967 20.2815 1.11621
132 1 -1.1104 6.70723 17.4909 6.69597
140 1 -1.1104 3.92037 20.2822 6.69592
147 1 -1.1104 3.91755 17.4908 6.69529
306 1 -1.1104 1.1306 20.2825 6.69537
129 1 -1.1104 6.70444 14.6991 3.90646
151 1 -1.1104 6.70707 17.4903 1.11684
125 1 -1.1104 6.70445 14.699 1.11635
150 1 -1.1104 6.70987 20.2817 3.90643
8453 2 2.2208 13.6603 -3.44482 13.6699
136 1 -1.1104 6.7071 17.4905 3.90581
285 1 -1.1104 6.70984 20.2822 6.69536
153 2 2.2208 10.8928 18.8886 5.30099
154 1 -1.1104 12.2834 14.6994 1.11641
156 1 -1.1104 12.2887 20.2821 1.11626
157 1 -1.1104 12.2834 14.6997 3.90663
158 1 -1.1104 12.2889 20.2826 3.90664
159 1 -1.1104 12.2861 17.4908 1.11696
161 2 2.2208 10.89 16.0966 2.51145
162 2 2.2208 10.8954 21.6793 2.51148
163 1 -1.1104 12.2861 17.4911 3.90592
164 1 -1.1104 9.49394 14.6992 1.117
166 1 -1.1104 9.49923 20.2817 1.11685
167 2 2.2208 8.10322 18.8877 2.51135
168 1 -1.1104 9.49392 14.6994 3.90591
169 1 -1.1104 9.49932 20.282 3.90585
170 2 2.2208 8.10055 16.0967 5.30091
171 2 2.2208 8.10603 21.6794 5.30099
172 1 -1.1104 9.49659 17.4905 1.11626
174 1 -1.1104 9.49671 17.4908 3.9065
327 1 -1.1104 9.49959 20.2828 6.69616
160 1 -1.1104 12.2862 17.4919 6.69616
165 1 -1.1104 9.49398 14.6998 6.69606
8454 2 2.2208 8.08151 -3.44477 8.09105
326 1 -1.1104 12.2888 20.2836 6.69553
207 2 2.2208 2.5026 -3.44488 2.51222
173 1 -1.1104 9.49666 17.4913 6.69538
8452 2 2.2208 5.29204 -3.44472 10.8805
319 2 2.2208 10.89 16.0976 8.09045
337 2 2.2208 13.6631 -0.652972 10.8803
177 2 2.2208 5.29751 2.13877 10.8802
178 1 -1.1104 1.10923 -2.05032 12.2749
179 1 -1.1104 1.11468 3.53318 12.2746
182 1 -1.1104 1.10922 -2.05037 9.48605
183 1 -1.1104 1.11464 3.53313 9.4858
186 1 -1.1104 1.11193 0.741418 12.2753
188 2 2.2208 5.2948 -0.653033 8.09093
189 2 2.2208 5.30024 4.93043 8.09073
190 1 -1.1104 1.11198 0.74139 9.48533
192 1 -1.1104 3.89867 -2.05033 12.2755
193 1 -1.1104 3.90413 3.5332 12.2752
194 2 2.2208 2.50807 2.13869 8.09084
195 1 -1.1104 3.8987 -2.05035 9.48543
196 1 -1.1104 3.90412 3.53313 9.48521
197 2 2.2208 2.50533 -0.652979 10.8804
198 2 2.2208 2.51073 4.93052 10.8802
199 1 -1.1104 3.90143 0.741444 12.2747
200 1 -1.1104 3.90142 0.74138 9.48589
181 1 -1.1104 6.69361 3.5332 12.2746
191 1 -1.1104 6.6909 0.741398 9.48527
185 1 -1.1104 6.69361 3.53312 9.48578
205 2 2.2208 5.3002 4.93055 13.6696
204 2 2.2208 2.50804 2.13878 13.6697
203 2 2.2208 5.29476 -0.65297 13.6698
180 1 -1.1104 6.68815 -2.05031 12.2748
187 1 -1.1104 6.69086 0.741434 12.2753
316 1 -1.1104 12.2891 20.2848 9.4857
320 2 2.2208 10.8956 21.6812 8.09061
57 1 -1.1104 9.48034 0.741308 6.69582
230 2 2.2208 10.8791 4.93064 13.6695
335 2 2.2208 13.6659 2.13877 8.0907
184 1 -1.1104 6.68814 -2.05035 9.48599
208 2 2.2208 10.8764 2.13882 10.8801
209 1 -1.1104 12.267 -2.05034 12.2748
210 1 -1.1104 12.2725 3.53332 12.2745
211 1 -1.1104 12.267 -2.05041 9.48596
212 1 -1.1104 12.2725 3.53322 9.48566
213 1 -1.1104 12.2697 0.741494 12.2752
214 2 2.2208 10.8737 -0.653043 8.09088
215 2 2.2208 10.8792 4.93051 8.09068
216 1 -1.1104 12.2698 0.741417 9.4852
217 1 -1.1104 9.47756 -2.05035 12.2754
218 1 -1.1104 9.48308 3.53321 12.2752
219 2 2.2208 8.08698 2.13871 8.09079
220 1 -1.1104 9.4776 -2.05037 9.48538
221 1 -1.1104 9.48305 3.53317 9.48515
222 2 2.2208 8.08423 -0.652977 10.8803
223 2 2.2208 8.08967 4.93053 10.8802
224 1 -1.1104 9.48032 0.741441 12.2747
225 1 -1.1104 9.48033 0.741395 9.48584
8461 2 2.2208 13.6604 -3.44482 8.09102
228 2 2.2208 8.08696 2.1388 13.6696
8459 2 2.2208 10.8709 -3.44477 10.8805
8456 2 2.2208 8.08148 -3.44472 13.6699
336 2 2.2208 13.6659 2.13888 13.6695
313 1 -1.1104 12.2833 14.7011 12.2742
93 1 -1.1104 3.90687 6.3247 6.69567
324 2 2.2208 8.10334 18.8887 8.09041
301 1 -1.1104 6.70435 14.7002 12.2742
256 2 2.2208 5.30555 10.5141 13.6694
257 2 2.2208 2.51868 13.3058 13.6691
88 1 -1.1104 1.12006 9.11638 6.69554
231 2 2.2208 5.30288 7.72225 10.8801
232 2 2.2208 5.30826 13.3056 10.8798
233 1 -1.1104 1.11998 9.11672 12.2744
235 1 -1.1104 1.12003 9.11658 9.48555
237 1 -1.1104 1.11733 6.32495 12.2751
238 1 -1.1104 1.12259 11.9085 12.2748
241 2 2.2208 5.30559 10.5138 8.09051
242 1 -1.1104 1.11734 6.32486 9.48511
243 1 -1.1104 1.12261 11.9083 9.48486
246 1 -1.1104 3.90945 9.11669 12.275
247 2 2.2208 2.51344 7.72212 8.09061
248 2 2.2208 2.51874 13.3054 8.09035
249 1 -1.1104 3.90949 9.11652 9.48501
250 2 2.2208 2.51606 10.514 10.8799
251 1 -1.1104 3.90681 6.32496 12.2746
252 1 -1.1104 3.91214 11.9084 12.2743
253 1 -1.1104 3.90681 6.32483 9.48571
254 1 -1.1104 3.91216 11.9082 9.48545
245 1 -1.1104 6.70165 11.9082 9.48491
234 1 -1.1104 6.69894 9.11671 12.2745
255 2 2.2208 2.51341 7.72234 13.6695
328 1 -1.1104 9.49942 20.2838 9.48484
118 1 -1.1104 9.48579 6.32475 6.69568
239 1 -1.1104 6.69628 6.32495 12.2752
236 1 -1.1104 6.69898 9.11656 9.48564
279 2 2.2208 8.09235 7.72239 13.6695
322 1 -1.1104 9.49388 14.7006 12.2749
240 1 -1.1104 6.70166 11.9085 12.2749
329 2 2.2208 8.10052 16.0976 10.8798
281 2 2.2208 8.09774 13.306 13.6692
244 1 -1.1104 6.69628 6.32486 9.48514
258 1 -1.1104 9.49119 11.9084 9.48557
259 1 -1.1104 9.48575 6.32492 9.48573
260 1 -1.1104 9.49116 11.9087 12.2743
261 1 -1.1104 9.48574 6.32502 12.2745
262 2 2.2208 8.09506 10.5141 10.88
263 1 -1.1104 9.48845 9.11668 9.48509
264 2 2.2208 8.09781 13.3055 8.09044
265 2 2.2208 8.0924 7.72216 8.09067
266 2 2.2208 10.8818 7.72242 10.8801
267 2 2.2208 10.8872 13.3061 10.8799
268 1 -1.1104 12.2779 9.11706 12.2744
269 1 -1.1104 12.2779 9.11687 9.48564
270 1 -1.1104 12.2752 6.32514 12.2751
271 1 -1.1104 12.2806 11.909 12.2749
272 2 2.2208 10.8846 10.514 8.09059
273 1 -1.1104 12.2752 6.32506 9.48506
274 1 -1.1104 12.2806 11.9088 9.48497
275 1 -1.1104 9.48843 9.11685 12.2751
280 2 2.2208 10.8845 10.5144 13.6694
310 2 2.2208 10.8899 16.0983 13.6691
576 2 2.2208 10.8955 21.683 13.669
126 1 -1.1104 6.70438 14.6995 6.69536
338 2 2.2208 2.52401 18.8893 13.6689
311 2 2.2208 5.3109 16.0976 13.6691
293 1 -1.1104 6.70713 17.4915 9.48476
286 1 -1.1104 1.12791 17.492 12.2745
287 2 2.2208 2.52141 16.0973 10.8797
288 2 2.2208 2.52676 21.6806 10.8797
289 1 -1.1104 3.91747 17.4918 12.2741
290 1 -1.1104 3.92024 20.2834 12.2747
291 1 -1.1104 3.91481 14.7001 12.2747
295 1 -1.1104 1.13066 20.2831 9.48525
296 1 -1.1104 1.12792 17.4916 9.48471
297 2 2.2208 5.31653 21.6798 8.09041
298 1 -1.1104 1.12531 14.6999 9.48528
299 2 2.2208 5.31101 16.0969 8.09033
302 1 -1.1104 1.13044 20.2837 12.2741
303 1 -1.1104 1.12524 14.7002 12.2741
304 2 2.2208 5.31373 18.889 10.8797
305 1 -1.1104 3.92021 20.2828 9.48478
307 2 2.2208 2.52415 18.8885 8.09028
308 1 -1.1104 3.91761 17.4913 9.4853
309 1 -1.1104 3.91483 14.6998 9.48476
294 1 -1.1104 6.70444 14.6999 9.48544
575 2 2.2208 5.31641 21.681 13.669
201 1 -1.1104 9.49678 17.492 9.48554
314 1 -1.1104 12.2888 20.286 12.2741
340 2 2.2208 8.10325 18.8898 13.669
155 1 -1.1104 12.2833 14.7001 6.69549
321 1 -1.1104 12.286 17.4927 9.48488
315 1 -1.1104 12.2834 14.7007 9.48556
318 1 -1.1104 12.2861 17.4934 12.2749
323 1 -1.1104 9.49956 20.2847 12.2749
330 2 2.2208 8.10612 21.6812 10.8798
331 1 -1.1104 9.49664 17.4926 12.2741
312 2 2.2208 10.8928 18.8901 10.8798
325 1 -1.1104 9.49389 14.7002 9.48481
292 1 -1.1104 6.71004 20.283 9.4855
284 1 -1.1104 6.70715 17.492 12.2748
300 1 -1.1104 6.70987 20.2837 12.2741
9007 2 2.2208 -0.268224 16.0979 13.669
9038 2 2.2208 -0.268081 16.0973 8.09024
9099 2 2.2208 -0.273435 10.5142 13.6693
9037 2 2.2208 -0.265529 18.8894 10.8796
9018 2 2.2208 -0.262806 21.6805 8.09035
8931 2 2.2208 -0.270699 13.3053 5.30088
8929 2 2.2208 -0.275964 7.72201 5.30113
8930 2 2.2208 -0.273286 10.5135 2.5115
9094 2 2.2208 -0.273369 10.5139 8.09046
8986 2 2.2208 -0.268013 16.0966 2.51129
8985 2 2.2208 -0.262769 21.6793 2.51137
9093 2 2.2208 -0.276046 7.72231 10.88
9095 2 2.2208 -0.270814 13.3059 10.8797
9039 2 2.2208 -0.278714 4.93044 8.09072
8987 2 2.2208 -0.265378 18.8884 5.30082
9343 2 2.2208 -0.263112 21.6815 13.6689
8868 2 2.2208 -0.278634 4.93019 2.51181
341 2 2.2208 5.29748 2.13874 16.4591
342 1 -1.1104 1.10915 -2.05049 17.8537
343 1 -1.1104 1.11468 3.53309 17.8535
346 1 -1.1104 1.10914 -2.05038 15.0649
348 1 -1.1104 1.11463 3.53317 15.0646
354 1 -1.1104 1.11184 0.741295 17.8542
356 2 2.2208 5.2947 -0.653104 19.2486
357 2 2.2208 5.3002 4.93038 19.2484
358 1 -1.1104 1.11195 0.741399 15.0642
362 1 -1.1104 3.89856 -2.05041 17.8543
363 1 -1.1104 3.90409 3.5331 17.854
364 2 2.2208 2.508 2.13863 19.2485
365 1 -1.1104 3.89865 -2.05034 15.0643
367 1 -1.1104 3.90413 3.53318 15.064
369 2 2.2208 2.50527 -0.653032 16.4592
370 2 2.2208 2.51073 4.93051 16.459
371 1 -1.1104 3.90136 0.741357 17.8535
372 1 -1.1104 3.90138 0.74139 15.0647
345 1 -1.1104 6.69362 3.5331 17.8534
347 1 -1.1104 1.10912 -2.05055 20.6437
373 1 -1.1104 3.90132 0.741196 20.6436
352 1 -1.1104 6.69357 3.5332 15.0646
350 1 -1.1104 6.68806 -2.05034 15.0648
366 1 -1.1104 3.89861 -2.05052 20.6431
349 1 -1.1104 1.11461 3.53297 20.6435
359 1 -1.1104 1.11191 0.741206 20.643
368 1 -1.1104 3.90413 3.53293 20.6429
361 1 -1.1104 6.69084 0.74122 20.6429
360 1 -1.1104 6.69088 0.741438 15.0641
355 1 -1.1104 6.69077 0.741344 17.8541
353 1 -1.1104 6.69354 3.53296 20.6434
8804 2 2.2208 13.6604 -3.44498 24.8276
403 2 2.2208 2.50257 -3.44494 24.8277
8800 2 2.2208 5.29199 -3.44475 16.4594
351 1 -1.1104 6.68804 -2.05049 20.6437
344 1 -1.1104 6.68807 -2.05039 17.8537
376 2 2.2208 10.8764 2.13877 16.459
377 1 -1.1104 12.267 -2.05046 17.8536
378 1 -1.1104 12.2725 3.53318 17.8533
379 1 -1.1104 12.2669 -2.0504 15.0648
381 1 -1.1104 12.2725 3.53328 15.0645
383 1 -1.1104 12.2697 0.74135 17.854
384 2 2.2208 10.8736 -0.653097 19.2485
385 2 2.2208 10.8791 4.93047 19.2483
386 1 -1.1104 12.2698 0.74145 15.064
388 1 -1.1104 9.47748 -2.05042 17.8542
389 1 -1.1104 9.48305 3.53313 17.854
390 2 2.2208 8.08692 2.13866 19.2485
391 1 -1.1104 9.47755 -2.05034 15.0642
393 1 -1.1104 9.48308 3.53322 15.064
395 2 2.2208 8.08418 -0.653003 16.4592
396 2 2.2208 8.08969 4.93054 16.459
397 1 -1.1104 9.4803 0.741366 17.8535
398 1 -1.1104 9.48032 0.741426 15.0646
498 2 2.2208 13.6658 2.13869 19.2484
399 1 -1.1104 9.48026 0.741249 20.6435
382 1 -1.1104 12.2725 3.53305 20.6434
387 1 -1.1104 12.2697 0.74127 20.6429
380 1 -1.1104 12.2669 -2.05051 20.6436
392 1 -1.1104 9.47757 -2.05049 20.6431
8805 2 2.2208 10.871 -3.44489 27.6171
8802 2 2.2208 8.08146 -3.44483 19.2487
676 2 2.2208 13.6632 -0.65318 27.6169
404 2 2.2208 5.30288 7.72228 16.4589
405 2 2.2208 5.3082 13.3058 16.4586
406 1 -1.1104 1.12004 9.11667 17.8532
408 1 -1.1104 1.11999 9.11679 15.0644
412 1 -1.1104 1.1173 6.3249 17.8539
413 1 -1.1104 1.12257 11.9084 17.8535
416 2 2.2208 5.30556 10.5139 19.2481
417 1 -1.1104 1.11735 6.32498 15.064
419 1 -1.1104 1.1226 11.9086 15.0636
425 1 -1.1104 3.90944 9.11661 17.8538
426 2 2.2208 2.51341 7.72214 19.2483
427 2 2.2208 2.51867 13.3056 19.2479
428 1 -1.1104 3.90951 9.11671 15.0638
430 2 2.2208 2.51605 10.5141 16.4587
431 1 -1.1104 3.90684 6.32485 17.8534
432 1 -1.1104 3.91217 11.9084 17.853
433 1 -1.1104 3.9068 6.32495 15.0646
435 1 -1.1104 3.91209 11.9085 15.0642
436 1 -1.1104 3.91209 11.9081 20.643
409 1 -1.1104 1.11997 9.11645 20.6431
429 1 -1.1104 3.90953 9.11639 20.6426
421 1 -1.1104 6.69631 6.32498 15.064
407 1 -1.1104 6.699 9.11665 17.8533
434 1 -1.1104 3.90679 6.32467 20.6434
410 1 -1.1104 6.69895 9.11675 15.0645
415 1 -1.1104 6.70161 11.9084 17.8536
423 1 -1.1104 6.70166 11.9085 15.0637
420 1 -1.1104 1.12269 11.9081 20.6424
418 1 -1.1104 1.11737 6.3247 20.6428
8791 2 2.2208 13.6603 -3.44495 19.2487
414 1 -1.1104 6.69628 6.32486 17.8539
424 1 -1.1104 6.70169 11.9081 20.6424
422 1 -1.1104 6.69633 6.3247 20.6427
411 1 -1.1104 6.69894 9.11643 20.6432
437 2 2.2208 10.8818 7.72245 16.4588
438 2 2.2208 10.8872 13.3063 16.4586
439 1 -1.1104 12.2779 9.11696 17.8531
440 1 -1.1104 12.2779 9.1171 15.0644
442 1 -1.1104 12.2752 6.32503 17.8538
443 1 -1.1104 12.2805 11.9089 17.8536
444 2 2.2208 10.8845 10.5141 19.2481
445 1 -1.1104 12.2752 6.32519 15.0638
447 1 -1.1104 12.2806 11.9091 15.0636
449 1 -1.1104 9.48841 9.11677 17.8538
450 2 2.2208 8.09238 7.7222 19.2483
451 2 2.2208 8.09772 13.3057 19.248
452 1 -1.1104 9.48846 9.11691 15.0639
454 2 2.2208 8.09505 10.5142 16.4588
455 1 -1.1104 9.4858 6.32495 17.8533
456 1 -1.1104 9.49118 11.9086 17.853
457 1 -1.1104 9.48575 6.32505 15.0645
459 1 -1.1104 9.49111 11.9088 15.0643
460 1 -1.1104 9.49106 11.9083 20.643
453 1 -1.1104 9.4885 9.11654 20.6426
446 1 -1.1104 12.2752 6.32485 20.6426
448 1 -1.1104 12.2806 11.9085 20.6424
441 1 -1.1104 12.2779 9.11668 20.6431
458 1 -1.1104 9.48574 6.32476 20.6433
497 2 2.2208 2.50253 -3.44489 19.2488
464 2 2.2208 5.31357 18.8892 16.4583
465 1 -1.1104 1.12521 14.7002 17.8528
466 1 -1.1104 1.1304 20.2835 17.8526
469 1 -1.1104 1.12516 14.7003 15.064
471 1 -1.1104 1.13038 20.2839 15.0638
477 1 -1.1104 1.12771 17.4919 17.8532
479 2 2.2208 5.31084 16.0972 19.2478
480 2 2.2208 5.31615 21.6803 19.2476
481 1 -1.1104 1.12782 17.4921 15.0633
485 1 -1.1104 3.91467 14.7001 17.8534
486 1 -1.1104 3.91996 20.2832 17.8532
487 2 2.2208 2.52389 18.8888 19.2476
488 1 -1.1104 3.91476 14.7002 15.0635
490 1 -1.1104 3.92015 20.2836 15.0633
492 2 2.2208 2.52128 16.0975 16.4583
493 2 2.2208 2.52655 21.6808 16.4582
494 1 -1.1104 3.91742 17.4917 17.8527
495 1 -1.1104 3.91741 17.4919 15.064
491 1 -1.1104 3.92002 20.2827 20.642
470 1 -1.1104 1.12516 14.6998 20.6427
472 1 -1.1104 1.13024 20.283 20.6424
489 1 -1.1104 3.91481 14.6997 20.6422
467 1 -1.1104 6.70433 14.7002 17.8528
482 1 -1.1104 1.12785 17.4914 20.6421
474 1 -1.1104 6.70424 14.6998 20.6428
496 1 -1.1104 3.9173 17.4913 20.6426
468 1 -1.1104 6.70977 20.2835 17.8525
478 1 -1.1104 6.70693 17.4918 17.8533
473 1 -1.1104 6.7043 14.7003 15.0641
476 1 -1.1104 6.70948 20.2828 20.6425
670 2 2.2208 10.8951 21.6796 24.8264
483 1 -1.1104 6.70705 17.4921 15.0634
484 1 -1.1104 6.70702 17.4913 20.6421
475 1 -1.1104 6.70984 20.2839 15.064
499 2 2.2208 10.8926 18.8904 16.4582
500 1 -1.1104 12.2833 14.7009 17.8528
501 1 -1.1104 12.2888 20.2854 17.8523
502 1 -1.1104 12.2832 14.7012 15.0642
504 1 -1.1104 12.2888 20.286 15.0639
506 1 -1.1104 12.2859 17.493 17.8533
507 2 2.2208 10.8899 16.0978 19.2477
508 2 2.2208 10.8953 21.6817 19.2473
509 1 -1.1104 12.286 17.4935 15.0633
511 1 -1.1104 9.49375 14.7005 17.8535
512 1 -1.1104 9.49919 20.2843 17.8532
513 2 2.2208 8.10308 18.8891 19.2476
514 1 -1.1104 9.49385 14.7007 15.0635
516 1 -1.1104 9.49946 20.2849 15.0632
518 2 2.2208 8.10042 16.0978 16.4584
519 2 2.2208 8.10596 21.6816 16.4582
520 1 -1.1104 9.4966 17.4924 17.8526
521 1 -1.1104 9.49655 17.4927 15.0641
517 1 -1.1104 9.49925 20.2833 20.6418
515 1 -1.1104 9.4939 14.7 20.6422
505 1 -1.1104 12.2884 20.2841 20.6424
503 1 -1.1104 12.2832 14.7004 20.6428
510 1 -1.1104 12.286 17.4922 20.6419
522 1 -1.1104 9.49639 17.4917 20.6427
8806 2 2.2208 10.8709 -3.4448 16.4593
660 1 -1.1104 9.49647 17.4906 26.2216
527 2 2.2208 5.29749 2.13851 22.0379
528 1 -1.1104 1.1092 -2.05061 23.4326
529 1 -1.1104 1.11472 3.53285 23.4323
532 1 -1.1104 1.10922 -2.05059 26.2226
533 1 -1.1104 1.11473 3.5328 26.2224
536 1 -1.1104 1.11193 0.741147 23.433
538 2 2.2208 5.29479 -0.653212 24.8275
540 1 -1.1104 1.112 0.741105 26.2219
542 1 -1.1104 3.89863 -2.05055 23.4332
543 1 -1.1104 3.90414 3.53284 23.4329
544 2 2.2208 2.50809 2.13848 24.8274
545 1 -1.1104 3.89871 -2.05056 26.222
546 1 -1.1104 3.90421 3.53281 26.2217
547 2 2.2208 2.50527 -0.653201 22.0381
548 2 2.2208 2.51077 4.93025 22.0378
549 1 -1.1104 3.90142 0.741136 23.4324
550 1 -1.1104 3.90144 0.741131 26.2225
539 2 2.2208 5.30029 4.93016 24.8273
541 1 -1.1104 6.69094 0.741167 26.2218
554 2 2.2208 2.50535 -0.653214 27.617
555 2 2.2208 5.29757 2.1385 27.6168
553 2 2.2208 2.51083 4.93013 27.6167
530 1 -1.1104 6.68815 -2.05054 23.4325
8807 2 2.2208 5.29206 -3.44487 27.6171
526 1 -1.1104 9.49914 20.2819 26.2209
674 2 2.2208 13.6659 2.13859 24.8273
531 1 -1.1104 6.69364 3.53286 23.4323
535 1 -1.1104 6.69365 3.53283 26.2223
534 1 -1.1104 6.68815 -2.05053 26.2226
537 1 -1.1104 6.69086 0.741149 23.433
579 2 2.2208 8.08427 -0.653167 27.6169
394 1 -1.1104 9.48304 3.53301 20.6428
675 2 2.2208 13.6631 -0.653187 22.038
556 2 2.2208 10.8764 2.1386 22.0379
557 1 -1.1104 12.267 -2.05054 23.4325
558 1 -1.1104 12.2725 3.53297 23.4322
559 1 -1.1104 12.267 -2.05053 26.2225
560 1 -1.1104 12.2725 3.53294 26.2223
561 1 -1.1104 12.2698 0.741228 23.4329
562 2 2.2208 10.8737 -0.653166 24.8275
563 2 2.2208 10.8792 4.93028 24.8272
564 1 -1.1104 12.2698 0.741211 26.2218
565 1 -1.1104 9.47757 -2.0505 23.4331
566 1 -1.1104 9.48307 3.53293 23.4328
567 2 2.2208 8.08701 2.13852 24.8273
568 1 -1.1104 9.47763 -2.05052 26.222
569 1 -1.1104 9.48313 3.53286 26.2217
570 2 2.2208 8.08422 -0.653169 22.038
571 2 2.2208 8.08968 4.93029 22.0378
572 1 -1.1104 9.48035 0.741213 23.4323
573 1 -1.1104 9.48037 0.741184 26.2224
580 2 2.2208 10.8765 2.13856 27.6168
578 2 2.2208 8.08978 4.93018 27.6167
375 2 2.2208 8.10042 16.097 22.0372
607 2 2.2208 5.30835 13.3048 27.6163
609 2 2.2208 5.30301 7.72176 27.6166
374 2 2.2208 8.10563 21.6799 22.0369
583 2 2.2208 5.30293 7.72195 22.0377
584 2 2.2208 5.30825 13.3053 22.0373
585 1 -1.1104 1.12009 9.11623 23.432
587 1 -1.1104 1.12009 9.1161 26.222
589 1 -1.1104 1.11738 6.32457 23.4327
590 1 -1.1104 1.12264 11.9079 23.4323
593 2 2.2208 5.30565 10.5134 24.827
594 1 -1.1104 1.11745 6.32445 26.2216
595 1 -1.1104 1.12278 11.9077 26.2213
598 1 -1.1104 3.90951 9.11619 23.4326
599 2 2.2208 2.51349 7.72182 24.8271
600 2 2.2208 2.5188 13.305 24.8268
601 1 -1.1104 3.90961 9.11605 26.2215
602 2 2.2208 2.51611 10.5136 22.0375
603 1 -1.1104 3.90691 6.32453 23.4322
604 1 -1.1104 3.91224 11.9078 23.4319
605 1 -1.1104 3.90689 6.32445 26.2222
606 1 -1.1104 3.91222 11.9076 26.2219
588 1 -1.1104 6.69906 9.11607 26.2221
592 1 -1.1104 6.70164 11.9078 23.4324
671 1 -1.1104 12.286 17.4909 26.221
608 2 2.2208 2.51619 10.5134 27.6164
8801 2 2.2208 8.08151 -3.44488 24.8276
632 2 2.2208 8.09518 10.5134 27.6165
596 1 -1.1104 6.69641 6.32447 26.2216
597 1 -1.1104 6.70178 11.9076 26.2213
586 1 -1.1104 6.69907 9.1162 23.4321
591 1 -1.1104 6.69633 6.32456 23.4328
612 1 -1.1104 9.48847 9.11631 23.4326
613 1 -1.1104 12.2807 11.9079 26.2214
614 1 -1.1104 12.2753 6.32462 26.2216
615 2 2.2208 10.8846 10.5136 24.827
617 1 -1.1104 12.2806 11.9081 23.4325
618 1 -1.1104 12.2752 6.32472 23.4327
619 1 -1.1104 12.278 9.11629 26.2221
620 1 -1.1104 12.278 9.11644 23.432
621 1 -1.1104 9.49121 11.9077 26.222
622 1 -1.1104 9.48585 6.32453 26.2222
623 1 -1.1104 9.49123 11.9079 23.4318
624 1 -1.1104 9.48583 6.32462 23.4321
625 2 2.2208 8.09508 10.5137 22.0375
626 1 -1.1104 9.48858 9.11615 26.2215
627 2 2.2208 8.09779 13.3051 24.8268
628 2 2.2208 8.09246 7.72188 24.8271
629 2 2.2208 10.8819 7.72211 22.0376
630 2 2.2208 10.8872 13.3056 22.0373
633 2 2.2208 10.8819 7.72191 27.6166
631 2 2.2208 10.8873 13.3051 27.6164
8803 2 2.2208 10.871 -3.4449 22.0382
8799 2 2.2208 5.292 -3.44489 22.0382
666 1 -1.1104 12.2833 14.6994 26.2218
658 2 2.2208 2.52146 16.0963 27.6161
638 1 -1.1104 6.7069 17.4908 23.4321
659 1 -1.1104 6.70954 20.2816 26.2216
635 2 2.2208 2.52646 21.6797 22.037
636 1 -1.1104 3.91746 17.4907 23.4315
637 1 -1.1104 1.12781 17.4909 23.432
639 1 -1.1104 3.91494 14.699 26.2211
640 1 -1.1104 3.91744 17.4904 26.2216
641 2 2.2208 2.52395 18.8879 24.8265
642 1 -1.1104 3.92002 20.2816 26.221
643 2 2.2208 5.31346 18.8883 22.037
644 1 -1.1104 1.12535 14.6994 23.4316
645 1 -1.1104 1.13045 20.2823 23.4314
647 2 2.2208 5.31092 16.0964 24.8266
648 2 2.2208 5.31608 21.679 24.8265
650 1 -1.1104 1.12536 14.6992 26.2216
651 1 -1.1104 1.12796 17.4906 26.221
652 1 -1.1104 1.13043 20.2819 26.2215
654 1 -1.1104 3.91477 14.6993 23.4322
656 1 -1.1104 3.91988 20.2821 23.432
657 2 2.2208 2.52132 16.0968 22.0371
655 1 -1.1104 6.70437 14.6991 26.2218
649 1 -1.1104 6.70957 20.2821 23.4314
59 2 2.2208 2.52663 21.6788 27.6161
678 2 2.2208 5.31358 18.8876 27.6161
661 1 -1.1104 9.49655 17.491 23.4315
525 1 -1.1104 9.49394 14.6992 26.2212
679 2 2.2208 10.8926 18.8879 27.6161
400 2 2.2208 8.10049 16.0963 27.6162
401 2 2.2208 13.6686 4.93068 16.4588
672 1 -1.1104 9.49379 14.6995 23.4323
673 1 -1.1104 9.49894 20.2824 23.4319
669 2 2.2208 10.8899 16.0968 24.8267
664 1 -1.1104 12.2834 14.6998 23.4316
665 1 -1.1104 12.2886 20.2829 23.4312
582 2 2.2208 8.10302 18.8879 24.8265
667 1 -1.1104 12.2885 20.2822 26.2215
663 2 2.2208 10.8925 18.8889 22.037
668 1 -1.1104 12.2858 17.4914 23.4321
646 1 -1.1104 6.7044 14.6993 23.4317
227 2 2.2208 8.10573 21.6788 27.6161
653 1 -1.1104 6.70704 17.4904 26.221
677 2 2.2208 13.6631 -0.653051 16.4591
9483 2 2.2208 -0.265643 18.8886 22.037
9507 2 2.2208 -0.265469 18.8879 27.6161
9279 2 2.2208 -0.276051 7.72237 16.4588
9281 2 2.2208 -0.270855 13.306 16.4585
9404 2 2.2208 -0.278653 4.93018 24.8272
9340 2 2.2208 -0.265701 18.8896 16.4582
9342 2 2.2208 -0.26319 21.6808 19.2474
9484 2 2.2208 -0.268104 16.0967 24.8266
9456 2 2.2208 -0.270766 13.3054 22.0372
9452 2 2.2208 -0.276019 7.72203 22.0376
9455 2 2.2208 -0.273311 10.5135 24.8269
9453 2 2.2208 -0.275932 7.72181 27.6165
9454 2 2.2208 -0.270641 13.305 27.6162
9216 2 2.2208 -0.263015 21.6794 24.8265
9280 2 2.2208 -0.273417 10.514 19.248
9341 2 2.2208 -0.268248 16.0975 19.2477
680 2 2.2208 5.31926 24.4702 5.30109
681 2 2.2208 5.3255 30.0518 5.30149
682 1 -1.1104 1.13598 25.8638 1.11634
683 1 -1.1104 1.13615 25.8641 3.90654
684 1 -1.1104 1.13324 23.0729 1.11681
685 1 -1.1104 1.13897 28.6547 1.11696
686 2 2.2208 5.32207 27.2606 2.51174
687 1 -1.1104 1.13326 23.0731 3.90595
688 1 -1.1104 1.13894 28.6548 3.90611
689 1 -1.1104 3.92557 25.8635 1.11698
690 2 2.2208 2.52954 24.4699 2.51147
691 2 2.2208 2.53577 30.0516 2.51184
692 1 -1.1104 3.92563 25.8635 3.90604
693 2 2.2208 2.53253 27.2613 5.30115
694 1 -1.1104 3.92273 23.0726 1.11628
695 1 -1.1104 3.92846 28.6541 1.11653
696 1 -1.1104 3.92297 23.0727 3.90648
697 1 -1.1104 3.92877 28.6542 3.90682
700 1 -1.1104 6.71234 23.0725 1.11689
701 1 -1.1104 6.71814 28.654 1.11736
703 1 -1.1104 6.71829 28.6539 3.90629
698 1 -1.1104 6.71508 25.8633 1.11641
866 1 -1.1104 3.92291 23.0733 6.69548
867 1 -1.1104 3.92854 28.6547 6.6958
865 1 -1.1104 3.92585 25.8642 6.69624
861 1 -1.1104 1.13341 23.0737 6.696
859 1 -1.1104 1.13588 25.8648 6.69567
702 1 -1.1104 6.71244 23.0727 3.90592
864 1 -1.1104 6.71873 28.6549 6.69676
9824 2 2.2208 13.6808 41.2951 13.65
699 1 -1.1104 6.71546 25.8635 3.90679
863 1 -1.1104 6.71281 23.0734 6.6962
707 2 2.2208 10.8983 24.4714 5.30139
708 2 2.2208 10.9044 30.0539 5.30234
709 1 -1.1104 12.2941 25.8641 1.11647
710 1 -1.1104 12.2946 25.8649 3.90722
711 1 -1.1104 12.2914 23.0733 1.11701
712 1 -1.1104 12.2972 28.6548 1.11748
713 2 2.2208 10.901 27.2615 2.51207
714 1 -1.1104 12.2914 23.0738 3.9061
715 1 -1.1104 12.2972 28.6556 3.90681
716 1 -1.1104 9.50472 25.8637 1.11719
717 2 2.2208 8.10864 24.4699 2.5116
718 2 2.2208 8.1147 30.0516 2.51241
719 1 -1.1104 9.50483 25.864 3.90623
720 2 2.2208 8.11185 27.2616 5.30149
721 1 -1.1104 9.50184 23.0727 1.11627
722 1 -1.1104 9.50754 28.6542 1.11677
723 1 -1.1104 9.50218 23.0732 3.90672
724 1 -1.1104 9.50819 28.6547 3.90745
898 1 -1.1104 9.50801 28.656 6.69626
893 1 -1.1104 12.2944 25.8667 6.69615
897 1 -1.1104 9.50214 23.0741 6.69561
895 1 -1.1104 12.2981 28.6582 6.69773
896 1 -1.1104 9.5054 25.8653 6.69679
894 1 -1.1104 12.2919 23.0752 6.69655
9675 2 2.2208 -0.22689 41.2098 5.29812
975 2 2.2208 -0.213886 46.7974 10.8786
732 2 2.2208 5.33388 35.6335 5.30232
733 1 -1.1104 1.14206 31.4452 1.11645
734 1 -1.1104 1.14984 37.0262 1.1163
736 1 -1.1104 1.14229 31.4453 3.90688
737 1 -1.1104 1.15047 37.0259 3.90741
739 1 -1.1104 1.14562 34.236 1.11746
740 2 2.2208 5.32889 32.8424 2.51272
741 2 2.2208 5.33854 38.4263 2.51398
742 1 -1.1104 1.14592 34.2354 3.9061
744 1 -1.1104 3.93168 31.4449 1.11755
745 1 -1.1104 3.93893 37.0269 1.11866
746 2 2.2208 2.54431 35.6332 2.51252
747 1 -1.1104 3.93182 31.4445 3.90637
748 1 -1.1104 3.93983 37.0249 3.9064
749 2 2.2208 2.53973 32.8425 5.30151
750 2 2.2208 2.55221 38.4235 5.30146
751 1 -1.1104 3.93502 34.2353 1.11712
752 1 -1.1104 3.93556 34.2349 3.90762
754 1 -1.1104 6.7217 31.4443 3.90748
755 1 -1.1104 6.7245 34.2355 1.11857
762 1 -1.1104 3.93544 34.2346 6.6962
735 1 -1.1104 6.72798 37.0263 1.11808
738 1 -1.1104 6.7287 37.0247 3.90858
743 1 -1.1104 6.72497 34.2342 3.90697
753 1 -1.1104 6.72107 31.4444 1.11712
756 1 -1.1104 1.15051 37.0253 6.69564
761 1 -1.1104 3.94031 37.0242 6.6979
758 1 -1.1104 1.14584 34.236 6.6969
760 1 -1.1104 3.93199 31.4449 6.69679
920 1 -1.1104 1.14179 31.4461 6.69597
757 1 -1.1104 6.72927 37.0229 6.69675
921 1 -1.1104 6.72161 31.4448 6.69614
1002 2 2.2208 -0.225401 41.2133 10.8787
759 1 -1.1104 6.72559 34.2344 6.69767