ITEM: TIMESTEP
0
ITEM: NUMBER OF ATOMS
17700
ITEM: BOX BOUNDS pp pp pp
-2.7717828229332220e-01 2.7617178282293317e+01
-3.4472205766305355e+00 3.3152722057663055e+02
-2.7717827830221448e-01 2.7617178278302212e+01
ITEM: ATOMS id type q x y z
1 2 2.2208 5.25318 2.07626 5.44302
2 1 -1.1104 1.18129 -2.06231 1.26516
3 1 -1.1104 1.11925 3.51699 1.15662
4 1 -1.1104 1.12417 -2.24311 3.97381
5 1 -1.1104 0.898358 3.43953 3.82977
6 1 -1.1104 1.18344 0.664717 1.16631
7 2 2.2208 5.35547 -0.634889 2.71375
8 2 2.2208 5.32948 4.89017 2.59573
9 1 -1.1104 1.19921 0.633608 3.95232
10 1 -1.1104 3.85466 -2.18247 1.14286
11 1 -1.1104 3.90432 3.4318 1.14387
12 2 2.2208 2.59805 2.07388 2.53943
13 1 -1.1104 3.98025 -2.05714 3.94758
14 1 -1.1104 3.817 3.50796 3.8376
15 2 2.2208 2.54731 -0.737374 5.32317
16 2 2.2208 2.41726 4.93991 5.37032
17 1 -1.1104 4.03549 0.676756 1.39402
18 1 -1.1104 3.984 0.674909 4.12966
210 2 2.2208 2.47704 4.8122 -0.187118
338 2 2.2208 2.66294 -0.63552 -0.0945024
25 1 -1.1104 6.60861 3.46857 3.90452
203 2 2.2208 5.34926 2.06871 -0.195065
19 1 -1.1104 6.65066 -2.00704 1.26219
24 1 -1.1104 6.64287 0.771315 1.20721
23 1 -1.1104 6.67036 3.67902 1.22226
27 1 -1.1104 1.04171 3.57976 6.67085
180 1 -1.1104 1.23867 0.763367 6.67831
8954 2 2.2208 -0.219661 -0.701505 2.61307
8925 2 2.2208 -0.174984 2.0683 5.32371
17336 2 2.2208 -0.191076 -3.41259 -0.103287
31 1 -1.1104 6.81034 -2.04677 3.95784
20 1 -1.1104 6.71653 0.77796 3.94596
8521 2 2.2208 13.6383 -3.43899 2.69239
34 2 2.2208 10.858 2.07738 5.41398
35 1 -1.1104 12.2933 -2.04224 1.27194
36 1 -1.1104 12.2483 3.39344 1.14695
37 1 -1.1104 12.2423 -2.21414 4.07661
38 1 -1.1104 12.4885 3.56022 3.81153
39 1 -1.1104 12.2296 0.594495 1.28862
40 2 2.2208 10.8863 -0.699483 2.7484
41 1 -1.1104 12.221 0.647102 4.03272
42 1 -1.1104 9.46243 -1.9529 1.16978
43 1 -1.1104 9.35557 3.45752 1.29194
44 2 2.2208 8.13476 2.09584 2.63618
45 1 -1.1104 9.6036 -2.18611 4.09269
46 1 -1.1104 9.63106 3.39648 3.91636
47 2 2.2208 8.04784 -0.648996 5.42166
48 2 2.2208 8.1824 4.8163 5.3649
49 1 -1.1104 9.34814 0.797256 1.38724
50 1 -1.1104 9.40014 0.748595 4.07737
51 2 2.2208 10.9279 4.84569 2.53682
337 2 2.2208 8.12291 -0.629222 -0.112137
8514 2 2.2208 10.7821 -3.41783 -0.0782233
336 2 2.2208 8.12849 4.90364 -0.104079
333 2 2.2208 10.868 2.05279 -0.0982502
60 1 -1.1104 9.52905 3.50181 6.6842
59 1 -1.1104 12.1631 3.61314 6.68426
334 2 2.2208 13.5922 -0.743945 -0.170296
56 2 2.2208 13.6541 2.06809 2.6461
9205 2 2.2208 -0.261448 13.4705 -0.201071
202 2 2.2208 2.53763 10.6464 -0.129923
205 2 2.2208 5.35633 7.61838 -0.186281
63 2 2.2208 5.29952 7.59456 5.39642
64 2 2.2208 5.30951 13.2686 5.26635
65 1 -1.1104 1.18421 9.13894 1.24188
66 1 -1.1104 1.05657 9.05488 4.00254
67 1 -1.1104 0.852128 6.34794 1.21742
68 1 -1.1104 1.06844 11.9571 1.18101
69 2 2.2208 5.36549 10.52 2.64022
70 1 -1.1104 0.960797 6.3006 4.00629
71 1 -1.1104 1.1107 11.9163 4.06196
72 1 -1.1104 4.06024 9.04119 1.35409
73 2 2.2208 2.49341 7.74546 2.62733
74 2 2.2208 2.49739 13.2335 2.54529
75 1 -1.1104 3.876 8.8477 4.05676
76 2 2.2208 2.47706 10.4527 5.55703
77 1 -1.1104 3.77414 6.22165 1.02139
78 1 -1.1104 3.84855 11.8948 1.15097
79 1 -1.1104 3.92806 6.21335 3.89463
80 1 -1.1104 3.94526 11.87 4.02369
81 1 -1.1104 6.66998 6.36485 1.30168
82 1 -1.1104 6.65856 6.03495 4.04718
85 1 -1.1104 6.66944 12.0978 1.34739
83 1 -1.1104 6.69045 9.19331 1.12896
261 2 2.2208 5.31054 13.4502 -0.0822534
84 1 -1.1104 6.70249 11.8899 3.89408
233 2 2.2208 10.8955 7.75365 -0.169444
90 1 -1.1104 7.01164 9.0332 4.09826
97 2 2.2208 10.8892 7.5808 5.37343
98 2 2.2208 10.8881 13.1631 5.50974
99 1 -1.1104 12.3006 9.20929 1.33087
100 1 -1.1104 12.2906 9.00007 4.01899
101 1 -1.1104 12.2926 6.40634 1.24758
102 1 -1.1104 12.1353 12.0297 1.25684
103 2 2.2208 10.9057 10.499 2.58282
104 1 -1.1104 12.266 6.21373 3.96228
105 1 -1.1104 12.2031 11.7572 4.1195
106 1 -1.1104 9.46426 9.11395 1.26207
107 2 2.2208 8.21791 7.67252 2.56784
108 2 2.2208 8.14159 13.2759 2.54145
109 1 -1.1104 9.65028 9.02401 3.98441
110 2 2.2208 8.29827 10.4398 5.38645
111 1 -1.1104 9.37854 6.30763 1.23178
112 1 -1.1104 9.53956 11.783 1.17189
113 1 -1.1104 9.60225 6.25662 3.85806
114 1 -1.1104 9.38211 11.8046 4.00971
119 2 2.2208 13.6325 7.69284 2.66976
96 2 2.2208 13.6426 10.5271 5.44753
332 2 2.2208 13.6285 10.3603 -0.238781
94 2 2.2208 13.6295 13.2674 2.60499
234 2 2.2208 8.03052 10.5728 -0.115545
9127 2 2.2208 -0.240994 18.9115 -0.226264
8988 2 2.2208 -0.243673 18.87 5.41594
175 2 2.2208 2.55734 21.8069 -0.267964
120 2 2.2208 5.50007 18.769 5.31026
121 1 -1.1104 1.07166 14.8473 1.19779
122 1 -1.1104 1.13583 20.4048 1.0598
123 1 -1.1104 1.17103 14.8102 3.85582
124 1 -1.1104 1.23363 20.1887 3.99331
125 1 -1.1104 1.13335 17.5139 1.15711
126 2 2.2208 5.37254 16.0477 2.58068
127 2 2.2208 5.27864 21.7698 2.50719
128 1 -1.1104 1.08391 17.4292 4.07296
129 1 -1.1104 3.86293 14.6103 1.18213
130 1 -1.1104 4.06742 20.2127 1.16246
131 2 2.2208 2.57301 18.8424 2.57373
132 1 -1.1104 3.93163 14.5411 4.16211
133 1 -1.1104 4.0118 20.2832 3.87918
134 2 2.2208 2.56326 15.9893 5.34977
135 2 2.2208 2.57575 21.5411 5.30704
136 1 -1.1104 3.97857 17.4604 1.11037
137 1 -1.1104 3.95152 17.4313 3.9473
289 2 2.2208 2.58277 16.1601 -0.200383
260 2 2.2208 5.37778 18.8886 -0.147339
139 1 -1.1104 6.64255 14.8337 1.14618
287 1 -1.1104 1.15223 14.6808 6.61081
291 1 -1.1104 4.08327 20.1579 6.68421
141 1 -1.1104 4.01608 17.4852 6.65278
142 1 -1.1104 4.0039 14.7983 6.67647
138 1 -1.1104 6.89129 20.2491 3.99675
144 1 -1.1104 6.72767 20.2053 1.28803
145 1 -1.1104 6.78288 17.4211 4.10334
150 1 -1.1104 6.80096 17.4879 1.32215
151 1 -1.1104 6.72786 14.719 4.08035
152 2 2.2208 10.7687 18.8891 5.43536
153 1 -1.1104 12.3288 14.5719 1.15171
154 1 -1.1104 12.3477 20.2181 1.26153
155 1 -1.1104 12.2084 14.6505 4.07539
156 1 -1.1104 12.2797 20.2203 4.11236
157 1 -1.1104 12.3028 17.5224 1.18806
158 2 2.2208 11.0164 16.0583 2.64674
159 2 2.2208 10.9674 21.5972 2.66511
160 1 -1.1104 12.1809 17.5296 4.14888
161 1 -1.1104 9.40073 14.6601 1.08953
162 1 -1.1104 9.57751 20.1055 1.22413
163 2 2.2208 8.12951 18.8197 2.65915
164 1 -1.1104 9.62011 14.5921 4.08453
165 1 -1.1104 9.50361 20.34 4.06665
166 2 2.2208 8.15468 15.9711 5.39083
167 2 2.2208 8.12273 21.6943 5.45596
168 1 -1.1104 9.54288 17.4796 1.22617
169 1 -1.1104 9.58206 17.5313 4.03885
176 2 2.2208 10.8552 18.8649 -0.154262
171 2 2.2208 8.09299 21.6576 -0.137857
237 2 2.2208 8.12829 16.1157 -0.195341
173 2 2.2208 13.5981 21.6754 -0.108282
174 2 2.2208 13.6648 16.0895 -0.195676
33 2 2.2208 13.5778 16.1489 5.45555
53 2 2.2208 13.6586 18.8227 2.61638
8898 2 2.2208 -0.197606 2.14736 10.8962
8519 2 2.2208 2.41341 -3.43228 8.17027
181 1 -1.1104 1.1303 -2.09051 6.73115
28 1 -1.1104 3.95035 0.714665 6.76325
26 1 -1.1104 3.81202 3.43618 6.70097
21 1 -1.1104 3.83512 -2.06995 6.7716
182 2 2.2208 5.19087 2.12611 10.9183
183 1 -1.1104 0.934137 -2.00074 12.2708
184 1 -1.1104 1.07888 3.56017 12.2326
185 1 -1.1104 1.08967 -2.11027 9.50477
186 1 -1.1104 1.12956 3.5758 9.41667
187 1 -1.1104 1.13156 0.759773 12.2347
188 2 2.2208 5.37418 -0.776891 8.11029
189 2 2.2208 5.40585 4.90054 8.10126
190 1 -1.1104 1.08149 0.683486 9.51012
191 1 -1.1104 4.04477 -2.15522 12.3092
192 1 -1.1104 3.89695 3.58279 12.3309
193 2 2.2208 2.54714 2.12066 8.10006
194 1 -1.1104 3.93711 -2.16898 9.55663
195 1 -1.1104 3.92252 3.45449 9.44945
196 2 2.2208 2.58199 -0.629512 10.9406
197 2 2.2208 2.40091 4.96227 10.968
198 1 -1.1104 3.7583 0.755838 12.3247
199 1 -1.1104 3.79826 0.691932 9.44359
212 1 -1.1104 6.6312 0.605511 9.53049
209 1 -1.1104 6.52873 0.605862 12.3624
9098 2 2.2208 -0.225263 -0.736844 8.14053
667 2 2.2208 2.41262 2.14596 13.6362
54 1 -1.1104 12.176 -2.06749 6.86343
58 1 -1.1104 9.59005 0.735495 6.90528
211 1 -1.1104 6.71019 3.42629 12.308
207 1 -1.1104 6.85733 3.39682 9.58704
29 1 -1.1104 6.73256 3.47122 6.75492
57 1 -1.1104 6.75028 0.614313 6.69701
200 1 -1.1104 6.7314 -1.95727 12.4172
214 1 -1.1104 9.47034 -2.0595 6.83998
208 1 -1.1104 6.73272 -2.13306 9.56072
201 1 -1.1104 6.79211 -2.13949 6.75522
213 1 -1.1104 12.3164 0.693199 6.82013
215 2 2.2208 10.76 2.08306 10.9921
216 1 -1.1104 12.2522 -2.02245 12.2923
217 1 -1.1104 12.3416 3.56988 12.3203
218 1 -1.1104 12.3098 -2.05326 9.54683
219 1 -1.1104 12.4271 3.59678 9.57827
220 1 -1.1104 12.319 0.837484 12.2147
221 2 2.2208 10.8425 -0.64661 8.24501
223 1 -1.1104 12.2464 0.694673 9.57548
224 1 -1.1104 9.37844 -2.18949 12.3703
225 1 -1.1104 9.44455 3.60951 12.4814
226 2 2.2208 8.12964 2.05458 8.10729
227 1 -1.1104 9.52725 -2.17317 9.64292
228 1 -1.1104 9.59992 3.46488 9.56672
229 2 2.2208 8.02611 -0.801619 10.9974
230 2 2.2208 8.18482 4.85269 10.9373
231 1 -1.1104 9.43993 0.724259 12.285
232 1 -1.1104 9.48774 0.642496 9.52045
222 2 2.2208 10.8752 4.9392 8.22825
206 2 2.2208 13.6215 4.87374 10.9177
30 2 2.2208 13.6319 2.06806 8.2177
8901 2 2.2208 -0.24876 10.5548 8.25318
86 1 -1.1104 1.1032 9.11683 6.97239
88 1 -1.1104 1.05663 6.43079 6.81331
87 1 -1.1104 3.95371 6.17627 6.772
91 1 -1.1104 1.17634 11.8986 6.7855
89 1 -1.1104 4.01683 9.09229 6.73819
238 1 -1.1104 3.9565 11.8636 6.77163
239 2 2.2208 5.32696 7.61729 11.025
240 2 2.2208 5.33676 13.3486 10.931
241 1 -1.1104 1.13264 9.16754 12.3098
242 1 -1.1104 1.11343 9.12919 9.69967
243 1 -1.1104 0.995537 6.35326 12.4053
244 1 -1.1104 1.10873 11.957 12.2615
245 2 2.2208 5.36441 10.574 8.16586
246 1 -1.1104 1.09645 6.28079 9.61305
247 1 -1.1104 1.2755 12.0361 9.55433
248 1 -1.1104 3.98427 9.06709 12.3911
249 2 2.2208 2.47974 7.72902 8.16446
250 2 2.2208 2.47103 13.2969 8.0324
251 1 -1.1104 3.85241 9.18094 9.59634
252 2 2.2208 2.60687 10.499 11.0356
253 1 -1.1104 3.69439 6.36885 12.3319
254 1 -1.1104 3.9804 11.8762 12.4555
255 1 -1.1104 3.97615 6.18721 9.51708
256 1 -1.1104 3.99732 11.8618 9.60468
258 1 -1.1104 6.67998 12.0019 12.3219
266 1 -1.1104 6.66378 9.10053 9.64559
257 1 -1.1104 6.67479 6.21727 9.59199
264 1 -1.1104 6.66844 9.08735 12.5295
95 1 -1.1104 6.67887 6.241 6.83716
259 1 -1.1104 6.59131 6.23394 12.3114
9154 2 2.2208 -0.221735 13.3402 10.8765
568 2 2.2208 2.50286 13.4003 13.6379
236 1 -1.1104 6.72741 9.14562 6.79146
262 1 -1.1104 6.76777 11.8275 6.77862
265 1 -1.1104 6.71889 11.8293 9.62711
117 1 -1.1104 9.45142 6.22544 6.73766
116 1 -1.1104 9.57587 11.7548 6.81702
267 1 -1.1104 12.2199 11.8489 6.95338
115 1 -1.1104 12.0984 9.12808 6.80603
263 1 -1.1104 9.42849 8.99759 6.80867
118 1 -1.1104 12.3031 6.42508 6.90557
268 1 -1.1104 9.4332 11.874 9.43712
269 1 -1.1104 9.42391 6.23776 9.58035
270 1 -1.1104 9.33462 11.8222 12.352
271 1 -1.1104 9.48442 6.26713 12.3994
272 2 2.2208 8.09548 10.453 10.9869
273 1 -1.1104 9.42581 9.09442 9.61074
274 2 2.2208 8.16466 13.2497 8.09574
275 2 2.2208 8.02818 7.74514 8.19954
276 2 2.2208 10.95 7.70036 10.9895
277 2 2.2208 10.8009 13.2893 11.0079
278 1 -1.1104 12.2721 9.2914 12.4334
279 1 -1.1104 12.3054 9.09424 9.73484
280 1 -1.1104 12.2163 6.40892 12.4615
281 1 -1.1104 12.0664 12.0076 12.37
282 2 2.2208 10.7863 10.3846 8.23581
283 1 -1.1104 12.1573 6.2981 9.67934
284 1 -1.1104 12.1231 11.903 9.6108
285 1 -1.1104 9.52025 9.20612 12.2759
286 2 2.2208 13.6515 7.75774 8.14
93 2 2.2208 13.666 13.3395 8.27935
62 2 2.2208 13.5943 10.5694 11.051
510 2 2.2208 8.0119 13.2968 13.6447
9044 2 2.2208 -0.270458 16.0846 8.11228
9199 2 2.2208 -0.227149 21.5852 8.12965
313 1 -1.1104 6.66671 17.4716 12.3742
288 1 -1.1104 6.62729 20.1295 6.78393
312 1 -1.1104 6.61046 17.3381 9.5954
148 1 -1.1104 1.22079 17.3453 6.78878
327 1 -1.1104 6.69319 14.6657 12.3017
292 1 -1.1104 1.16238 20.3458 6.81666
294 1 -1.1104 1.11283 14.8067 12.2732
295 2 2.2208 5.30345 18.8853 10.9348
296 1 -1.1104 3.90135 20.2636 9.53936
297 1 -1.1104 3.94014 17.5955 9.4153
298 2 2.2208 2.62369 18.957 8.1288
299 1 -1.1104 3.84393 14.647 9.37766
300 1 -1.1104 1.22647 17.4276 12.3796
301 2 2.2208 2.53891 16.1991 10.877
302 2 2.2208 2.56458 21.8459 10.9053
303 1 -1.1104 3.89756 17.531 12.1666
304 1 -1.1104 4.02738 20.2953 12.3566
305 1 -1.1104 3.93822 14.6814 12.2152
306 1 -1.1104 1.09791 20.3854 9.57578
307 1 -1.1104 1.16692 17.4664 9.48703
308 2 2.2208 5.35537 21.6036 8.15114
309 1 -1.1104 1.09037 14.718 9.50676
310 2 2.2208 5.3359 16.0381 8.05768
311 1 -1.1104 1.29773 20.1829 12.3219
668 2 2.2208 5.29231 16.101 13.6225
178 1 -1.1104 9.53008 20.0466 12.3998
326 1 -1.1104 12.1356 14.7143 9.67922
170 1 -1.1104 12.1646 17.5407 6.7668
324 1 -1.1104 12.431 14.7598 6.81865
204 1 -1.1104 12.3721 20.4005 9.62559
329 1 -1.1104 12.4135 17.5283 9.60724
322 1 -1.1104 9.49096 20.1873 6.91572
61 2 2.2208 10.9495 16.0915 8.27913
325 1 -1.1104 9.46691 17.382 6.81673
147 1 -1.1104 9.63749 20.3994 9.73453
55 1 -1.1104 9.4202 14.6718 12.3187
321 1 -1.1104 9.58113 14.5782 6.73434
140 1 -1.1104 6.7425 14.6231 6.81198
323 1 -1.1104 9.52997 17.4982 9.4942
172 1 -1.1104 12.3426 20.2857 6.9705
319 2 2.2208 8.08196 16.0784 10.9775
290 1 -1.1104 6.80306 17.4237 6.70985
320 1 -1.1104 9.4739 14.6168 9.42833
330 1 -1.1104 6.71072 20.1757 12.4411
317 2 2.2208 10.963 18.8131 10.9832
92 1 -1.1104 12.2176 20.2839 12.4809
314 1 -1.1104 6.74003 20.2712 9.54965
293 1 -1.1104 6.76389 14.6705 9.55396
318 2 2.2208 8.14422 18.8471 8.31333
328 1 -1.1104 12.3468 17.3678 12.3936
316 1 -1.1104 12.1841 14.8107 12.2165
331 2 2.2208 10.9473 21.6791 8.25429
146 2 2.2208 8.00731 21.587 11.1319
22 1 -1.1104 9.55271 17.3129 12.283
235 2 2.2208 13.6698 21.6803 11.0555
32 2 2.2208 13.6638 18.8307 8.20539
339 2 2.2208 5.17779 2.18504 16.5461
340 1 -1.1104 0.934917 -1.95251 17.9678
341 1 -1.1104 1.11762 3.49333 17.9061
342 1 -1.1104 1.06735 -2.07462 15.0803
343 1 -1.1104 1.09882 3.6733 14.9937
344 1 -1.1104 1.05075 0.808001 17.9174
345 2 2.2208 5.20686 -0.448132 19.3001
346 2 2.2208 5.291 5.02771 19.2937
347 1 -1.1104 0.929184 0.71687 15.0039
348 1 -1.1104 3.64082 -1.82443 18.03
349 1 -1.1104 3.87904 3.40711 17.9559
350 2 2.2208 2.44299 2.18026 19.3506
351 1 -1.1104 3.79123 -2.15014 15.2175
352 1 -1.1104 3.71372 3.56831 15.0011
353 2 2.2208 2.40521 -0.560222 16.6025
354 2 2.2208 2.51388 4.9536 16.4888
355 1 -1.1104 3.8584 0.893989 17.9625
356 1 -1.1104 3.7827 0.775968 15.2043
367 1 -1.1104 6.53521 3.59259 15.1398
363 2 2.2208 5.23196 5.06862 13.7832
675 2 2.2208 5.28568 -0.616991 13.8058
368 1 -1.1104 6.6391 0.970424 17.8148
358 1 -1.1104 6.60349 0.742036 15.1821
360 1 -1.1104 6.57854 -2.10722 15.2389
8865 2 2.2208 2.41253 -3.27007 19.304
357 1 -1.1104 6.5506 3.78658 17.8118
8868 2 2.2208 2.47854 -3.37245 13.7074
369 1 -1.1104 6.67691 -1.83656 17.8986
8862 2 2.2208 5.30847 -3.39084 16.5754
8871 2 2.2208 10.8553 -3.35357 16.4711
538 2 2.2208 7.98099 2.08937 13.7223
370 2 2.2208 10.7777 2.07879 16.5606
371 1 -1.1104 12.3233 -2.1347 17.7191
372 1 -1.1104 12.2239 3.62449 18.024
373 1 -1.1104 12.2947 -2.00017 15.0192
374 1 -1.1104 12.2742 3.69045 15.2546
375 1 -1.1104 12.2885 0.788696 17.9338
376 2 2.2208 10.8788 -0.648971 19.1652
377 2 2.2208 11 4.92542 19.3797
378 1 -1.1104 12.2662 0.867571 15.011
379 1 -1.1104 9.48172 -2.00715 17.9337
380 1 -1.1104 9.44261 3.48943 17.8728
381 2 2.2208 8.05967 2.12832 19.2862
382 1 -1.1104 9.49504 -1.84945 15.0345
383 1 -1.1104 9.2429 3.48483 15.1689
384 2 2.2208 7.98783 -0.581444 16.3992
385 2 2.2208 8.11638 4.97095 16.4941
386 1 -1.1104 9.4303 0.72589 17.9379
387 1 -1.1104 9.6258 0.908894 15.1362
674 2 2.2208 10.9497 -0.610422 13.7302
394 2 2.2208 13.6227 2.23948 19.3433
393 2 2.2208 13.6459 5.05098 16.5059
8864 2 2.2208 8.14102 -3.37173 19.3991
500 2 2.2208 13.6674 -0.634053 16.4801
388 1 -1.1104 9.50236 0.625776 20.6234
547 1 -1.1104 12.3504 -1.97108 20.4899
389 1 -1.1104 9.53675 3.53602 20.6306
392 1 -1.1104 12.3176 0.707066 20.6242
673 2 2.2208 10.8658 4.95253 13.941
395 2 2.2208 5.30119 7.83605 16.5415
396 2 2.2208 5.2335 13.2868 16.5385
397 1 -1.1104 1.25748 9.17786 18.0435
398 1 -1.1104 1.01222 9.19419 15.0864
399 1 -1.1104 1.02632 6.33288 17.7902
400 1 -1.1104 1.09792 11.897 17.9413
401 2 2.2208 5.23713 10.4422 19.3543
402 1 -1.1104 1.16517 6.34877 15.1398
403 1 -1.1104 1.02651 11.9339 15.0632
404 1 -1.1104 3.8323 8.99588 17.7821
405 2 2.2208 2.54842 7.75678 19.3013
406 2 2.2208 2.53387 13.3065 19.4391
407 1 -1.1104 3.99836 9.06014 15.0237
408 2 2.2208 2.60592 10.4105 16.492
409 1 -1.1104 3.81883 6.2735 17.9191
410 1 -1.1104 3.81035 11.8698 18.0361
411 1 -1.1104 4.03242 6.46013 15.07
412 1 -1.1104 3.80429 11.8555 15.2355
537 2 2.2208 5.34649 10.6129 13.7834
416 1 -1.1104 6.4897 11.8179 17.9781
426 1 -1.1104 6.67965 6.37797 15.1312
417 1 -1.1104 6.51544 9.09153 18.0066
9301 2 2.2208 -0.192403 10.5643 19.2844
361 2 2.2208 2.37904 7.82027 13.8595
451 2 2.2208 13.5736 13.3208 19.3509
415 1 -1.1104 6.88822 9.1475 15.27
414 1 -1.1104 6.7727 6.4009 17.9738
427 1 -1.1104 6.73455 11.9935 15.2772
669 2 2.2208 13.6372 13.3952 13.7452
428 2 2.2208 10.8845 7.79623 16.6433
429 2 2.2208 10.8167 13.4335 16.5893
430 1 -1.1104 12.4003 9.16532 17.8543
431 1 -1.1104 12.2771 9.22758 15.1356
432 1 -1.1104 12.3965 6.26743 18.0059
433 1 -1.1104 12.1629 11.9539 17.9564
434 2 2.2208 10.9114 10.5894 19.3101
435 1 -1.1104 12.3257 6.383 15.1466
436 1 -1.1104 12.2792 12.0604 15.113
437 1 -1.1104 9.62693 9.15473 17.9149
438 2 2.2208 8.16801 7.64445 19.3833
439 2 2.2208 8.13934 13.2416 19.2864
440 1 -1.1104 9.48189 9.11932 15.1464
441 2 2.2208 8.05092 10.6085 16.5613
442 1 -1.1104 9.70911 6.31959 18.0611
443 1 -1.1104 9.32729 11.9771 17.9175
444 1 -1.1104 9.47331 6.2699 15.2486
445 1 -1.1104 9.47949 11.8688 15.1049
473 2 2.2208 8.18844 7.77963 13.7065
671 2 2.2208 10.7724 10.4978 13.7307
622 2 2.2208 13.6239 7.66812 19.3611
595 2 2.2208 2.62493 18.9076 13.7763
649 2 2.2208 5.34442 21.7503 13.7736
452 2 2.2208 5.267 18.8091 16.4595
453 1 -1.1104 1.05298 14.6592 17.7565
454 1 -1.1104 0.933353 20.2341 17.8875
455 1 -1.1104 1.1633 14.6273 15.1052
456 1 -1.1104 1.1203 20.4055 15.113
457 1 -1.1104 1.06766 17.4417 17.6764
458 2 2.2208 5.25936 16.0336 19.1671
459 2 2.2208 5.25637 21.7062 19.351
460 1 -1.1104 1.14134 17.7009 15.0085
461 1 -1.1104 3.98515 14.5559 17.9214
462 1 -1.1104 3.98565 20.1527 17.9349
463 2 2.2208 2.3961 18.8294 19.2043
464 1 -1.1104 3.93979 14.7647 14.9579
465 1 -1.1104 3.89917 20.3112 15.157
466 2 2.2208 2.48295 16.0059 16.5314
467 2 2.2208 2.45733 21.6792 16.5267
468 1 -1.1104 3.88338 17.346 17.8815
469 1 -1.1104 3.92569 17.3684 14.9862
480 1 -1.1104 6.64609 14.6925 15.035
474 1 -1.1104 6.57762 17.4389 17.8154
656 1 -1.1104 6.5234 20.3495 20.6132
476 1 -1.1104 1.07632 14.9131 20.4978
477 1 -1.1104 1.07064 20.2814 20.5818
627 1 -1.1104 1.03254 17.6337 20.5607
9238 2 2.2208 -0.25596 21.6261 13.7118
479 2 2.2208 8.09354 18.7365 13.7427
471 1 -1.1104 6.77687 20.2307 17.7934
470 1 -1.1104 6.69973 17.3726 15.1735
472 1 -1.1104 6.75823 14.6203 17.9763
481 1 -1.1104 6.83317 20.1133 15.0041
482 2 2.2208 10.854 18.9409 16.5495
483 1 -1.1104 12.2843 14.7842 18.0125
484 1 -1.1104 12.2813 20.3325 18.0944
485 1 -1.1104 12.3618 14.8307 15.1979
486 1 -1.1104 12.2216 20.2836 15.2669
487 1 -1.1104 12.1306 17.6774 17.9223
488 2 2.2208 10.8672 16.1725 19.3477
489 2 2.2208 10.9418 21.7895 19.3425
490 1 -1.1104 12.2881 17.4816 15.1169
491 1 -1.1104 9.5546 14.8299 17.8906
492 1 -1.1104 9.48229 20.5089 17.9716
493 2 2.2208 8.06985 19.0457 19.2898
494 1 -1.1104 9.4659 14.5947 15.1174
495 1 -1.1104 9.53215 20.2481 15.0744
496 2 2.2208 8.07898 16.1235 16.5837
497 2 2.2208 8.0784 21.8484 16.5162
498 1 -1.1104 9.44128 17.4962 17.9011
499 1 -1.1104 9.53139 17.4585 15.218
366 2 2.2208 10.9486 15.9454 13.8546
505 2 2.2208 13.5967 18.8938 19.4271
425 2 2.2208 10.7846 21.7054 13.8703
504 2 2.2208 13.622 16.1972 16.5901
647 1 -1.1104 6.76431 17.4594 20.5834
515 1 -1.1104 0.891532 0.585316 20.7103
359 1 -1.1104 1.09676 3.57174 20.6706
365 1 -1.1104 3.97744 -2.14066 20.7685
8634 2 2.2208 5.33198 -3.39908 22.0796
8867 2 2.2208 2.7726 -3.42602 24.9649
513 1 -1.1104 1.16657 -2.04876 20.6676
507 1 -1.1104 3.85797 3.50258 20.828
514 1 -1.1104 3.85335 0.797327 20.7321
516 2 2.2208 5.38321 2.24545 22.1138
517 1 -1.1104 1.37245 -2.04165 23.5457
518 1 -1.1104 1.04057 3.5451 23.4586
519 1 -1.1104 1.41925 -2.06896 26.3275
520 1 -1.1104 1.07006 3.51934 26.3601
521 1 -1.1104 1.10703 0.753364 23.5063
522 2 2.2208 5.46339 -0.65566 25.0007
523 1 -1.1104 1.09781 0.739117 26.3367
524 1 -1.1104 4.17901 -2.06848 23.578
525 1 -1.1104 3.8732 3.57035 23.4125
526 2 2.2208 2.50928 2.29243 24.8299
527 1 -1.1104 4.1948 -2.11548 26.3178
528 1 -1.1104 3.90424 3.46397 26.1622
529 2 2.2208 2.61449 -0.589386 22.1896
530 2 2.2208 2.5519 5.01723 22.103
531 1 -1.1104 3.86571 0.728366 23.4847
532 1 -1.1104 3.75278 0.914978 26.4229
533 2 2.2208 5.36512 4.88813 24.9877
509 1 -1.1104 6.63607 3.55538 20.6606
543 1 -1.1104 6.67344 3.46375 26.4011
511 1 -1.1104 6.67213 0.768056 20.8742
546 1 -1.1104 6.68416 -1.97593 20.6984
17693 2 2.2208 -0.179436 -3.4293 22.1858
9417 2 2.2208 -0.15007 -0.669553 24.9849
8869 2 2.2208 8.08321 -3.39394 24.9162
544 1 -1.1104 6.70925 3.5728 23.4974
536 1 -1.1104 6.75521 0.753993 26.2899
534 1 -1.1104 6.77362 -1.88892 26.342
545 1 -1.1104 6.74073 0.803085 23.5525
541 1 -1.1104 12.3568 3.68388 20.7898
391 1 -1.1104 9.37326 -2.22951 20.8235
535 1 -1.1104 6.90692 -2.10562 23.5039
548 2 2.2208 10.9376 2.0668 21.9473
549 1 -1.1104 12.4191 -1.94308 23.3794
550 1 -1.1104 12.2356 3.67774 23.5289
551 1 -1.1104 12.206 -2.08472 26.3078
552 1 -1.1104 12.2565 3.47768 26.2874
553 1 -1.1104 12.312 0.697626 23.4141
554 2 2.2208 10.8946 -0.662625 24.8541
555 2 2.2208 10.8137 4.89023 24.9493
556 1 -1.1104 12.2639 0.645243 26.4456
557 1 -1.1104 9.63897 -1.96348 23.5247
558 1 -1.1104 9.45207 3.47415 23.476
559 2 2.2208 8.12429 2.21696 24.9197
560 1 -1.1104 9.53737 -1.98393 26.3386
561 1 -1.1104 9.48798 3.55555 26.3715
562 2 2.2208 8.08172 -0.698052 22.0408
563 2 2.2208 8.10627 4.9114 22.0801
564 1 -1.1104 9.55721 0.749484 23.4438
565 1 -1.1104 9.53791 0.719941 26.3277
8861 2 2.2208 13.5638 -3.41409 24.8477
571 1 -1.1104 1.25713 9.1277 20.8208
421 1 -1.1104 1.18507 11.9161 20.7403
413 1 -1.1104 1.23453 6.31782 20.7154
420 1 -1.1104 4.0842 9.11396 20.7501
569 1 -1.1104 4.00482 6.46349 20.667
419 1 -1.1104 3.94963 11.9239 20.7212
573 2 2.2208 5.27287 7.71211 22.2208
574 2 2.2208 5.25951 13.3361 22.2562
575 1 -1.1104 1.1091 9.15963 23.4646
576 1 -1.1104 1.12643 9.20938 26.4462
577 1 -1.1104 1.28562 6.27261 23.5807
578 1 -1.1104 1.09343 11.9738 23.409
579 2 2.2208 5.38343 10.5069 24.9957
580 1 -1.1104 1.07239 6.45254 26.4073
581 1 -1.1104 1.17717 12.0819 26.2044
582 1 -1.1104 3.76079 9.07952 23.5404
583 2 2.2208 2.4591 7.68648 25.0003
584 2 2.2208 2.5379 13.3327 24.8994
585 1 -1.1104 3.92905 9.07565 26.3705
586 2 2.2208 2.66337 10.5185 22.0337
587 1 -1.1104 3.97764 6.37961 23.5941
588 1 -1.1104 3.7897 11.9463 23.4921
589 1 -1.1104 3.88096 6.20092 26.1556
590 1 -1.1104 4.07153 11.9409 26.4065
591 1 -1.1104 6.62288 9.19913 23.5901
602 1 -1.1104 6.63859 11.9066 23.5659
9501 2 2.2208 -0.214479 7.6689 22.1738
9444 2 2.2208 -0.225936 13.3181 22.0883
449 1 -1.1104 12.2661 11.9389 20.6566
572 1 -1.1104 6.84037 6.34802 20.8934
593 1 -1.1104 6.76529 6.36296 23.6761
592 1 -1.1104 6.73378 11.9678 26.349
600 1 -1.1104 6.88977 6.24169 26.4678
597 1 -1.1104 6.80942 11.8786 20.7439
594 1 -1.1104 6.82172 9.07011 26.2988
447 1 -1.1104 9.54707 6.26073 20.7725
446 1 -1.1104 12.2935 6.36242 20.8691
598 1 -1.1104 12.2575 9.04905 20.7098
601 1 -1.1104 6.77342 9.10678 20.6797
596 1 -1.1104 9.50255 9.2062 20.658
448 1 -1.1104 9.53771 12.0325 20.6761
603 1 -1.1104 9.45014 9.17655 23.5103
604 1 -1.1104 12.2686 11.8353 26.3788
605 1 -1.1104 12.3357 6.26773 26.4423
606 2 2.2208 10.8938 10.5347 24.8438
607 1 -1.1104 12.2159 11.9229 23.5338
608 1 -1.1104 12.1534 6.34761 23.6492
609 1 -1.1104 12.1909 8.99776 26.218
610 1 -1.1104 12.4099 9.23559 23.4669
611 1 -1.1104 9.46205 11.9306 26.1832
612 1 -1.1104 9.59891 6.33966 26.3986
613 1 -1.1104 9.43931 11.9145 23.457
614 1 -1.1104 9.44942 6.32964 23.5475
615 2 2.2208 8.0189 10.507 22.1005
616 1 -1.1104 9.51345 9.21046 26.4374
617 2 2.2208 8.06133 13.31 24.858
618 2 2.2208 8.2117 7.64227 24.9772
619 2 2.2208 10.9262 7.67986 22.1969
620 2 2.2208 10.9041 13.2897 22.1625
450 2 2.2208 13.5828 7.7263 24.8719
424 2 2.2208 13.6459 10.5458 22.1402
362 2 2.2208 13.6513 13.3819 24.9782
179 2 2.2208 10.8689 13.2084 27.594
9451 2 2.2208 -0.233822 16.0397 24.8707
475 1 -1.1104 6.59281 14.5293 20.7709
626 1 -1.1104 3.90389 20.37 20.7267
478 1 -1.1104 3.9219 17.5101 20.7644
625 1 -1.1104 3.8171 14.6997 20.7236
629 2 2.2208 2.53474 16.0907 22.0827
630 2 2.2208 2.49327 21.6965 21.9825
631 1 -1.1104 4.01226 17.4377 23.5742
632 1 -1.1104 1.27131 17.4089 23.5581
633 1 -1.1104 3.94501 14.6093 26.2684
634 1 -1.1104 3.98411 17.4497 26.3197
635 2 2.2208 2.59745 18.9092 24.934
636 1 -1.1104 4.06614 20.4116 26.2582
637 2 2.2208 5.29948 18.8639 22.136
638 1 -1.1104 1.18375 14.6869 23.2433
639 1 -1.1104 1.11955 20.1439 23.5074
640 2 2.2208 5.33244 16.1588 24.9174
641 2 2.2208 5.3337 21.6489 24.8922
642 1 -1.1104 1.17967 14.8182 26.2593
643 1 -1.1104 1.14933 17.4695 26.2383
644 1 -1.1104 1.20254 20.2669 26.3862
645 1 -1.1104 3.92963 14.7787 23.4142
646 1 -1.1104 3.99342 20.2792 23.5787
621 1 -1.1104 6.54362 14.7098 23.5272
9236 2 2.2208 -0.265707 21.5454 24.9137
9447 2 2.2208 -0.224272 18.821 22.0819
648 2 2.2208 13.6659 18.8356 25.0793
662 2 2.2208 13.6348 16.0304 22.276
390 2 2.2208 13.6281 21.7276 22.1985
651 1 -1.1104 12.3206 20.0893 23.6745
508 1 -1.1104 9.35644 14.6951 23.421
663 2 2.2208 10.8461 21.5372 24.9131
661 1 -1.1104 9.64616 17.4095 26.242
503 1 -1.1104 12.1911 14.7449 20.8988
423 1 -1.1104 9.5325 20.3364 23.5803
652 2 2.2208 8.0879 16.1336 22.052
599 2 2.2208 10.8656 16.0798 24.9113
506 1 -1.1104 12.2415 17.3022 23.5944
653 2 2.2208 10.9693 18.8438 22.1507
628 1 -1.1104 6.76559 17.6746 26.2925
666 1 -1.1104 6.7513 20.2267 23.4639
665 1 -1.1104 6.77403 17.417 23.4384
623 1 -1.1104 6.75876 20.4036 26.289
624 1 -1.1104 6.7953 14.7712 26.3322
664 1 -1.1104 12.284 20.1996 26.4622
512 1 -1.1104 12.2573 14.4919 23.6229
542 1 -1.1104 9.5089 20.2768 26.2758
657 1 -1.1104 9.53389 17.4926 23.589
658 2 2.2208 8.1566 18.8442 24.9083
654 1 -1.1104 9.52408 14.7045 26.1381
660 1 -1.1104 12.2203 20.397 20.8627
655 1 -1.1104 12.196 14.6001 26.3212
570 1 -1.1104 12.311 17.3986 26.3331
422 1 -1.1104 9.36839 20.4196 20.7241
418 1 -1.1104 12.2968 17.4424 20.8184
502 1 -1.1104 9.44949 14.7536 20.717
659 1 -1.1104 9.53961 17.6222 20.6524
650 2 2.2208 8.10271 21.7368 22.1872
676 2 2.2208 5.26453 24.4156 5.26414
677 2 2.2208 5.1961 30.1228 5.2548
678 1 -1.1104 1.19294 25.8347 1.12
679 1 -1.1104 1.09536 25.9093 3.84963
680 1 -1.1104 1.05092 23.1619 1.09796
681 1 -1.1104 1.02362 28.5891 1.14877
682 2 2.2208 5.43016 27.3848 2.47106
683 1 -1.1104 1.0711 23.1875 3.88326
684 1 -1.1104 1.25525 28.672 4.0679
685 1 -1.1104 3.79505 25.8688 1.19461
686 2 2.2208 2.51993 24.5766 2.54219
687 2 2.2208 2.47716 30.0164 2.5203
688 1 -1.1104 3.97106 25.9434 3.95874
689 2 2.2208 2.42868 27.1761 5.34553
690 1 -1.1104 3.87658 23.0276 1.21431
691 1 -1.1104 3.86103 28.7382 1.04414
692 1 -1.1104 3.78829 22.9406 3.99153
693 1 -1.1104 4.01825 28.7788 3.85858
699 1 -1.1104 6.60016 23.1697 1.14901
697 1 -1.1104 6.62086 28.7921 1.17158
1009 2 2.2208 2.51019 27.393 -0.167197
702 1 -1.1104 1.29688 23.1871 6.5383
847 1 -1.1104 6.69475 23.0859 6.66648
962 2 2.2208 5.27547 24.5157 -0.155463
9601 2 2.2208 -0.151679 30.121 5.40596
9874 2 2.2208 -0.170824 27.1865 2.52179
694 1 -1.1104 6.79658 22.9996 3.89976
696 1 -1.1104 6.87177 25.9974 1.24921
706 1 -1.1104 6.91625 28.7553 3.89251
698 1 -1.1104 6.76954 25.9633 3.90147
707 2 2.2208 10.9535 24.3728 5.37516
708 2 2.2208 10.9436 30.0745 5.40421
709 1 -1.1104 12.2704 25.818 1.29483
710 1 -1.1104 12.2936 25.9206 4.09868
711 1 -1.1104 12.2068 23.0679 1.39124
712 1 -1.1104 12.3027 28.6369 1.16455
713 2 2.2208 11.001 27.2299 2.57008
714 1 -1.1104 12.5273 22.9888 4.09012
715 1 -1.1104 12.2241 28.7802 3.89136
716 1 -1.1104 9.54156 25.8228 1.23831
717 2 2.2208 8.14422 24.4832 2.53144
718 2 2.2208 8.18557 30.1133 2.57569
719 1 -1.1104 9.63885 25.8097 3.98145
720 2 2.2208 8.25327 27.2869 5.30143
721 1 -1.1104 9.44723 22.9271 1.16091
722 1 -1.1104 9.55675 28.8528 1.1242
723 1 -1.1104 9.66438 23.0624 4.0226
724 1 -1.1104 9.59082 28.5101 3.93075
1007 2 2.2208 8.16028 27.3886 -0.169858
990 2 2.2208 10.9287 24.4101 -0.0893082
936 2 2.2208 13.6602 30.013 2.57892
729 1 -1.1104 6.7456 28.7204 6.59756
763 2 2.2208 5.28888 35.6046 -0.248927
734 2 2.2208 5.39168 35.7666 5.34677
735 1 -1.1104 1.10422 31.4015 1.1687
736 1 -1.1104 1.12176 37.1061 1.30693
737 1 -1.1104 1.12847 31.5148 3.96365
738 1 -1.1104 1.22819 36.9853 4.0002
739 1 -1.1104 1.26273 34.2588 1.19466
740 2 2.2208 5.33157 32.9175 2.5392
741 2 2.2208 5.43562 38.4716 2.58477
742 1 -1.1104 1.057 34.3519 3.97651
743 1 -1.1104 3.77468 31.4172 1.06602
744 1 -1.1104 3.87177 37.0334 1.30445
745 2 2.2208 2.5411 35.7399 2.54922
746 1 -1.1104 3.80062 31.6056 3.98983
747 1 -1.1104 4.03349 37.1694 3.92416
748 2 2.2208 2.56971 33.0229 5.33176
749 2 2.2208 2.5833 38.4141 5.37622
750 1 -1.1104 4.02386 34.1888 1.06905
751 1 -1.1104 3.92765 34.4688 3.97791
755 1 -1.1104 6.68371 31.4643 1.11204
904 1 -1.1104 1.10244 37.0313 6.65784
9604 2 2.2208 -0.199554 35.7614 -0.168218
903 1 -1.1104 1.13125 34.2914 6.61255
9853 2 2.2208 -0.259776 35.6204 5.37565
9660 2 2.2208 -0.161427 32.891 2.48734
817 2 2.2208 2.4079 32.8223 -0.249498
768 1 -1.1104 6.77332 37.0885 1.09976
753 1 -1.1104 6.78158 34.2515 3.76204
767 1 -1.1104 6.72102 31.3644 3.95649
765 1 -1.1104 6.78292 37.0459 3.88931
754 1 -1.1104 6.83959 34.3532 1.0237
769 2 2.2208 10.8136 35.6686 5.26919
770 1 -1.1104 12.4251 31.4444 1.08853
771 1 -1.1104 12.3675 37.0399 1.28411
772 1 -1.1104 12.212 31.4019 3.9428
773 1 -1.1104 12.2854 37.1063 4.02712
774 1 -1.1104 12.3345 34.1734 1.06868
775 2 2.2208 10.9422 32.8658 2.5195
776 2 2.2208 10.9412 38.3475 2.57304
777 1 -1.1104 12.2607 34.2311 3.75377
778 1 -1.1104 9.51477 31.573 1.1618
779 1 -1.1104 9.61145 37.071 1.10171
780 2 2.2208 8.13796 35.7142 2.49804
781 1 -1.1104 9.52621 31.5301 3.89491
782 1 -1.1104 9.63264 36.9994 3.85932