ITEM: TIMESTEP
320
ITEM: NUMBER OF ATOMS
17696
ITEM: BOX BOUNDS pp pp pp
-2.7717828229332220e-01 2.7617178282293317e+01
-3.4472205766305355e+00 3.3152722057663055e+02
-2.7717827830221448e-01 2.7617178278302212e+01
ITEM: ATOMS id type q x y z
1 2 2.2208 5.27359 2.13448 5.31879
2 1 -1.1104 1.08683 -2.05333 1.13375
3 1 -1.1104 1.0902 3.52837 1.13471
4 1 -1.1104 1.08693 -2.05333 3.92355
5 1 -1.1104 1.09032 3.5284 3.92451
6 1 -1.1104 1.08861 0.737523 1.13457
7 2 2.2208 5.2719 -0.656416 2.52887
8 2 2.2208 5.27532 4.9253 2.52986
9 1 -1.1104 1.0885 0.73754 3.92366
10 1 -1.1104 3.87639 -2.05334 1.1341
11 1 -1.1104 3.87978 3.52835 1.13506
12 2 2.2208 2.48414 2.13444 2.52935
13 1 -1.1104 3.87629 -2.05332 3.92319
14 1 -1.1104 3.87966 3.52839 3.92414
15 2 2.2208 2.48244 -0.656401 5.31832
16 2 2.2208 2.48585 4.92534 5.31931
17 1 -1.1104 3.87795 0.737509 1.13419
18 1 -1.1104 3.87806 0.737529 3.92401
28 1 -1.1104 6.66574 -2.05333 1.13373
29 1 -1.1104 6.66741 0.737549 3.92364
169 1 -1.1104 3.87637 -2.05332 6.71299
326 1 -1.1104 9.46769 17.4836 12.2951
20 1 -1.1104 6.66912 3.52837 1.13468
30 1 -1.1104 6.66751 0.737524 1.13456
19 1 -1.1104 6.66924 3.52842 3.92452
27 1 -1.1104 3.87977 3.52843 6.71394
173 1 -1.1104 1.09018 3.52846 6.71358
171 1 -1.1104 3.87795 0.737565 6.71309
200 1 -1.1104 6.66912 3.52844 6.71357
26 2 2.2208 13.6419 2.13462 8.10827
25 1 -1.1104 6.66584 -2.05331 3.92354
317 2 2.2208 13.6527 18.8811 8.11171
142 2 2.2208 13.6508 16.0895 5.32167
31 2 2.2208 10.8525 2.13456 5.31882
32 1 -1.1104 12.2446 -2.05331 1.13374
33 1 -1.1104 12.248 3.5285 1.13472
34 1 -1.1104 12.2447 -2.05328 3.92353
35 1 -1.1104 12.2481 3.52855 3.92456
36 1 -1.1104 12.2464 0.737594 1.13459
37 2 2.2208 10.8508 -0.656371 2.52887
38 1 -1.1104 12.2463 0.737629 3.92367
39 1 -1.1104 9.45529 -2.05332 1.13409
40 1 -1.1104 9.45868 3.52843 1.13509
41 2 2.2208 8.06304 2.13449 2.52935
42 1 -1.1104 9.4552 -2.05331 3.92318
43 1 -1.1104 9.45856 3.52848 3.92415
44 2 2.2208 8.06135 -0.65639 5.31831
45 2 2.2208 8.06477 4.92539 5.31931
46 1 -1.1104 9.45685 0.737552 1.13421
47 1 -1.1104 9.45696 0.737586 3.92402
48 2 2.2208 10.8542 4.92543 2.52988
316 2 2.2208 13.6508 16.0901 10.9004
51 2 2.2208 13.6526 18.8801 2.53288
53 1 -1.1104 12.2446 -2.0533 6.71262
197 1 -1.1104 9.4659 14.6925 12.295
256 2 2.2208 13.6419 2.13458 2.52939
203 1 -1.1104 6.66751 0.737569 6.71344
199 1 -1.1104 9.45685 0.737587 6.71309
208 1 -1.1104 12.248 3.52858 6.71361
207 1 -1.1104 9.45868 3.5285 6.71398
284 2 2.2208 10.8614 16.0895 8.11105
258 2 2.2208 13.6471 10.5077 10.8992
55 2 2.2208 5.27705 7.7162 5.31984
56 2 2.2208 5.28057 13.2978 5.32098
57 1 -1.1104 1.09361 9.11002 1.13578
58 1 -1.1104 1.09376 9.1101 3.92557
59 1 -1.1104 1.09204 6.3192 1.13558
60 1 -1.1104 1.09547 11.9008 1.1367
61 2 2.2208 5.27877 10.5069 2.53096
62 1 -1.1104 1.09191 6.31926 3.92467
63 1 -1.1104 1.09533 11.9009 3.92578
64 1 -1.1104 3.88322 9.10997 1.13614
65 2 2.2208 2.48757 7.71613 2.5304
66 2 2.2208 2.49103 13.2977 2.53154
67 1 -1.1104 3.88309 9.11004 3.92521
68 2 2.2208 2.48931 10.507 5.32039
69 1 -1.1104 3.88138 6.31917 1.13521
70 1 -1.1104 3.88481 11.9007 1.13634
71 1 -1.1104 3.88151 6.31923 3.92503
72 1 -1.1104 3.88498 11.9009 3.92616
73 1 -1.1104 6.67097 6.31921 1.1356
77 1 -1.1104 6.67084 6.31927 3.92466
86 1 -1.1104 6.67256 9.11001 1.13576
87 1 -1.1104 6.67433 11.9009 3.92578
79 1 -1.1104 6.67446 11.9008 1.13673
83 1 -1.1104 1.09363 9.11021 6.71465
82 1 -1.1104 3.88138 6.3193 6.7141
230 1 -1.1104 1.09203 6.31934 6.71446
78 1 -1.1104 3.88325 9.11015 6.71501
76 1 -1.1104 6.67271 9.1101 3.92561
229 1 -1.1104 1.0955 11.9011 6.71555
286 1 -1.1104 12.259 20.276 12.2957
257 2 2.2208 13.649 13.2987 8.11044
80 2 2.2208 13.6489 13.2983 2.53159
262 1 -1.1104 6.67097 6.31932 6.71448
111 2 2.2208 13.6471 10.5075 5.32045
88 2 2.2208 10.8559 7.7164 5.31987
89 2 2.2208 10.8595 13.2982 5.32103
90 1 -1.1104 12.2515 9.11026 1.13576
91 1 -1.1104 12.2516 9.11039 3.92564
92 1 -1.1104 12.2498 6.31938 1.13563
93 1 -1.1104 12.2534 11.9011 1.13675
94 2 2.2208 10.8577 10.5072 2.53098
95 1 -1.1104 12.2497 6.31946 3.92469
96 1 -1.1104 12.2532 11.9013 3.9258
97 1 -1.1104 9.46217 9.11013 1.13616
98 2 2.2208 8.0665 7.71621 2.53041
99 2 2.2208 8.07003 13.2978 2.53156
100 1 -1.1104 9.46204 9.11022 3.92522
101 2 2.2208 8.06827 10.5071 5.32041
102 1 -1.1104 9.46029 6.31929 1.13522
103 1 -1.1104 9.46378 11.9009 1.13632
104 1 -1.1104 9.46042 6.31936 3.92507
105 1 -1.1104 9.46396 11.9011 3.92621
106 1 -1.1104 12.2515 9.11051 6.71466
263 1 -1.1104 9.46384 11.9012 6.71521
265 1 -1.1104 9.4603 6.31942 6.71411
260 1 -1.1104 12.2498 6.31954 6.71453
54 2 2.2208 13.6454 7.71642 2.53044
112 2 2.2208 5.28419 18.8794 5.3222
113 1 -1.1104 1.09706 14.6916 1.13694
114 1 -1.1104 1.10058 20.2731 1.13821
115 1 -1.1104 1.09723 14.6918 3.92671
116 1 -1.1104 1.10078 20.2734 3.92792
117 1 -1.1104 1.09899 17.4824 1.13788
118 2 2.2208 5.28233 16.0884 2.53216
119 2 2.2208 5.286 21.6697 2.53346
120 1 -1.1104 1.09882 17.4826 3.92697
121 1 -1.1104 3.88672 14.6915 1.13731
122 1 -1.1104 3.89034 20.2727 1.13856
123 2 2.2208 2.49459 18.8792 2.53277
124 1 -1.1104 3.88658 14.6916 3.92637
125 1 -1.1104 3.89015 20.273 3.92761
126 2 2.2208 2.49282 16.0887 5.32155
127 2 2.2208 2.49644 21.6702 5.32277
128 1 -1.1104 3.88833 17.4821 1.13755
129 1 -1.1104 3.88854 17.4823 3.92735
144 1 -1.1104 6.67998 20.273 3.92809
133 1 -1.1104 6.67608 14.6915 1.13693
314 1 -1.1104 6.67616 14.6918 6.71579
139 1 -1.1104 3.88842 17.4825 6.71637
287 1 -1.1104 3.88678 14.6918 6.71616
228 2 2.2208 13.6402 -0.656332 5.31833
131 1 -1.1104 6.67972 20.2727 1.13819
134 1 -1.1104 6.67792 17.4823 3.92699
320 2 2.2208 8.07586 21.6711 10.9015
145 1 -1.1104 9.46952 20.2744 9.50639
137 1 -1.1104 1.09901 17.4827 6.71668
170 2 2.2208 13.6546 21.6717 5.32306
130 1 -1.1104 6.67807 17.4821 1.13796
132 1 -1.1104 6.67628 14.6917 3.9268
147 2 2.2208 10.8633 18.8801 5.32232
148 1 -1.1104 12.255 14.6919 1.13693
149 1 -1.1104 12.2588 20.2735 1.13819
150 1 -1.1104 12.2552 14.6922 3.92687
151 1 -1.1104 12.2591 20.274 3.92825
152 1 -1.1104 12.2571 17.4827 1.13802
153 2 2.2208 10.8613 16.0889 2.53221
154 2 2.2208 10.8651 21.6704 2.53358
155 1 -1.1104 12.2569 17.4831 3.92704
156 1 -1.1104 9.46575 14.6917 1.13736
157 1 -1.1104 9.46951 20.273 1.13868
158 2 2.2208 8.0737 18.8793 2.53284
159 1 -1.1104 9.46561 14.6919 3.92638
160 1 -1.1104 9.46932 20.2734 3.92767
161 2 2.2208 8.07189 16.0888 5.32162
162 2 2.2208 8.07567 21.6703 5.32293
163 1 -1.1104 9.46741 17.4823 1.13754
164 1 -1.1104 9.46766 17.4827 3.9275
143 1 -1.1104 12.2572 17.4836 6.71698
23 2 2.2208 8.07557 21.6695 -0.255973
167 1 -1.1104 12.2588 20.2747 6.71715
109 2 2.2208 13.6545 21.6705 -0.255981
332 2 2.2208 13.6507 16.0889 -0.257298
140 2 2.2208 2.49642 21.6696 -0.25597
338 2 2.2208 10.8632 18.8793 -0.256653
110 2 2.2208 13.6402 -0.656372 10.8972
328 1 -1.1104 9.46976 20.2747 12.2962
336 2 2.2208 10.8595 13.2979 -0.257908
174 1 -1.1104 1.08859 0.737579 6.71345
172 1 -1.1104 1.08682 -2.0533 6.71264
175 2 2.2208 5.27357 2.13452 10.8976
176 1 -1.1104 1.0868 -2.05328 12.2915
177 1 -1.1104 1.09017 3.52853 12.2924
178 1 -1.1104 1.0869 -2.05329 9.50242
179 1 -1.1104 1.09029 3.52851 9.50336
180 1 -1.1104 1.08856 0.737627 12.2923
181 2 2.2208 5.27189 -0.656384 8.10775
182 2 2.2208 5.27531 4.92539 8.10873
183 1 -1.1104 1.08847 0.737621 9.50252
184 1 -1.1104 3.87635 -2.0533 12.2918
185 1 -1.1104 3.87974 3.52848 12.2928
186 2 2.2208 2.48412 2.13452 8.10822
187 1 -1.1104 3.87627 -2.0533 9.50206
188 1 -1.1104 3.87964 3.52847 9.50299
189 2 2.2208 2.48242 -0.656356 10.8972
190 2 2.2208 2.48584 4.92543 10.8981
191 1 -1.1104 3.87791 0.737594 12.2919
192 1 -1.1104 3.87803 0.73759 9.50287
205 1 -1.1104 6.66572 -2.05333 12.2915
52 1 -1.1104 6.66574 -2.05331 6.71263
334 2 2.2208 2.48929 10.5069 -0.25848
168 2 2.2208 5.27359 2.13442 -0.260104
285 1 -1.1104 12.2591 20.2754 9.50704
75 2 2.2208 5.27704 7.71608 -0.259047
22 2 2.2208 13.6436 4.92561 10.8982
201 1 -1.1104 6.66923 3.52847 9.50338
206 1 -1.1104 6.66582 -2.05332 9.50241
193 1 -1.1104 6.66748 0.737584 12.2923
194 2 2.2208 2.48585 4.92526 -0.259588
195 1 -1.1104 6.6691 3.52849 12.2924
204 1 -1.1104 6.66739 0.737576 9.50252
49 1 -1.1104 12.2464 0.73764 6.71348
209 1 -1.1104 9.45529 -2.05331 6.71298
210 2 2.2208 10.8525 2.13455 10.8977
211 1 -1.1104 12.2446 -2.05337 12.2915
212 1 -1.1104 12.248 3.52858 12.2924
213 1 -1.1104 12.2447 -2.05333 9.50242
214 1 -1.1104 12.2481 3.5286 9.50342
215 1 -1.1104 12.2464 0.737596 12.2923
216 2 2.2208 10.8508 -0.656373 8.10776
217 2 2.2208 10.8542 4.9255 8.10876
218 1 -1.1104 12.2463 0.737626 9.50254
219 1 -1.1104 9.45528 -2.05336 12.2918
220 1 -1.1104 9.45866 3.52852 12.2928
221 2 2.2208 8.06304 2.13451 8.10824
222 1 -1.1104 9.45519 -2.05333 9.50206
223 1 -1.1104 9.45856 3.52851 9.50301
224 2 2.2208 8.06133 -0.656393 10.8972
225 2 2.2208 8.06477 4.92544 10.8982
226 1 -1.1104 9.45684 0.737578 12.292
227 1 -1.1104 9.45695 0.737591 9.50289
108 2 2.2208 10.8559 7.71624 -0.259042
333 2 2.2208 8.06825 10.5069 -0.25849
21 2 2.2208 13.6545 21.6732 10.9016
259 1 -1.1104 6.6726 9.11018 6.71464
329 2 2.2208 8.07183 16.0884 -0.25729
231 1 -1.1104 3.88486 11.901 6.7152
232 2 2.2208 5.27707 7.71629 10.8987
233 2 2.2208 5.28065 13.298 10.8998
234 1 -1.1104 1.09366 9.11027 12.2935
235 1 -1.1104 1.09377 9.11027 9.50441
236 1 -1.1104 1.09202 6.3194 12.2933
237 1 -1.1104 1.09552 11.9011 12.2944
238 2 2.2208 5.27883 10.5071 8.10982
239 1 -1.1104 1.09191 6.3194 9.50352
240 1 -1.1104 1.09539 11.9011 9.50461
241 1 -1.1104 3.88327 9.1102 12.2938
242 2 2.2208 2.48759 7.71627 8.10926
243 2 2.2208 2.49109 13.298 8.11036
244 1 -1.1104 3.88314 9.1102 9.50405
245 2 2.2208 2.48935 10.5072 10.8992
246 1 -1.1104 3.88139 6.31935 12.2929
247 1 -1.1104 3.88494 11.901 12.294
248 1 -1.1104 3.88151 6.31934 9.50389
249 1 -1.1104 3.88504 11.901 9.50499
251 1 -1.1104 6.67086 6.31936 9.50352
254 1 -1.1104 6.67457 11.9012 12.2944
253 1 -1.1104 6.67098 6.31938 12.2933
331 2 2.2208 5.28414 18.8788 -0.256653
330 2 2.2208 5.28053 13.2976 -0.257901
84 1 -1.1104 6.67451 11.901 6.71561
107 1 -1.1104 9.46219 9.11034 6.71506
250 1 -1.1104 6.67265 9.11027 12.2934
252 1 -1.1104 6.67441 11.9011 9.5046
261 1 -1.1104 6.67275 9.11026 9.50445
264 1 -1.1104 12.2534 11.9015 6.71567
266 1 -1.1104 9.46402 11.9014 9.50505
267 1 -1.1104 9.46043 6.31946 9.50392
268 1 -1.1104 9.46392 11.9014 12.294
269 1 -1.1104 9.46033 6.31946 12.2929
270 2 2.2208 8.06832 10.5073 10.8992
271 1 -1.1104 9.46208 9.11041 9.50405
272 2 2.2208 8.07011 13.2982 8.1104
273 2 2.2208 8.06652 7.71633 8.10928
274 2 2.2208 10.856 7.7165 10.8987
275 2 2.2208 10.8596 13.2986 10.8998
276 1 -1.1104 12.2515 9.11066 12.2934
277 1 -1.1104 12.2516 9.11063 9.50449
278 1 -1.1104 12.2498 6.3196 12.2933
279 1 -1.1104 12.2534 11.9018 12.2944
280 2 2.2208 10.8577 10.5075 8.10985
281 1 -1.1104 12.2497 6.31959 9.50354
282 1 -1.1104 12.2533 11.9017 9.50462
283 1 -1.1104 9.46222 9.11044 12.2939
50 2 2.2208 13.6454 7.7166 8.10931
293 1 -1.1104 1.0971 14.6919 6.71577
136 1 -1.1104 6.67985 20.2733 6.71701
337 2 2.2208 2.49279 16.0883 -0.257304
135 1 -1.1104 6.67817 17.4826 6.71685
292 1 -1.1104 3.8904 20.2732 6.71736
138 1 -1.1104 1.10063 20.2735 6.71697
289 1 -1.1104 6.67638 14.692 9.50561
294 1 -1.1104 1.09718 14.6919 12.2945
295 2 2.2208 5.28435 18.8797 10.9009
296 1 -1.1104 3.89034 20.2733 9.5063
297 1 -1.1104 3.88864 17.4826 9.50613
298 2 2.2208 2.49467 18.8796 8.11151
299 1 -1.1104 3.8867 14.6918 9.50516
300 1 -1.1104 1.09906 17.4827 12.2954
301 2 2.2208 2.49291 16.0888 10.9003
302 2 2.2208 2.49655 21.6703 10.9014
303 1 -1.1104 3.88858 17.4826 12.2951
304 1 -1.1104 3.89051 20.2733 12.2961
305 1 -1.1104 3.88685 14.6918 12.2949
306 1 -1.1104 1.10081 20.2736 9.50661
307 1 -1.1104 1.09892 17.4828 9.50572
308 2 2.2208 5.28614 21.6703 8.11215
309 1 -1.1104 1.09727 14.692 9.5055
310 2 2.2208 5.28243 16.0888 8.11097
311 1 -1.1104 1.10074 20.2734 12.2956
291 1 -1.1104 6.67809 17.4828 9.50574
290 1 -1.1104 6.67829 17.4829 12.2956
324 1 -1.1104 6.68015 20.2736 9.50685
255 2 2.2208 13.6436 4.92555 5.31936
288 1 -1.1104 12.2552 14.693 12.2945
327 2 2.2208 10.8634 18.8809 10.901
322 2 2.2208 8.07384 18.8799 8.11162
325 2 2.2208 8.07201 16.0892 10.9004
319 1 -1.1104 9.46572 14.6924 9.50518
146 1 -1.1104 9.46584 14.6922 6.71627
165 1 -1.1104 9.46965 20.2739 6.71764
198 1 -1.1104 9.46778 17.4834 9.5063
141 1 -1.1104 12.2551 14.6925 6.71583
166 1 -1.1104 9.46751 17.483 6.71643
321 1 -1.1104 12.2553 14.6928 9.50568
313 1 -1.1104 6.6763 14.692 12.2945
323 1 -1.1104 12.2572 17.4844 12.2956
318 1 -1.1104 12.257 17.484 9.50582
312 1 -1.1104 6.6801 20.2737 12.2956
315 2 2.2208 10.8652 21.6717 8.11237
335 2 2.2208 13.6471 10.5072 -0.258487
74 2 2.2208 10.8525 2.13449 -0.260079
196 2 2.2208 13.6402 -0.656376 -0.260561
202 2 2.2208 13.6436 4.92544 -0.259555
81 2 2.2208 8.06477 4.92531 -0.259581
85 2 2.2208 8.06135 -0.656422 -0.260582
24 2 2.2208 2.48244 -0.656422 -0.260569
339 2 2.2208 5.27355 2.13448 16.4765
340 1 -1.1104 1.0868 -2.05331 17.8703
341 1 -1.1104 1.09016 3.52845 17.8713
342 1 -1.1104 1.08689 -2.0533 15.0813
343 1 -1.1104 1.09026 3.5285 15.0822
344 1 -1.1104 1.08855 0.737578 17.8711
345 2 2.2208 5.27187 -0.656428 19.2654
346 2 2.2208 5.27529 4.9253 19.2664
347 1 -1.1104 1.08845 0.737611 15.0813
348 1 -1.1104 3.87636 -2.05334 17.8707
349 1 -1.1104 3.87973 3.52841 17.8716
350 2 2.2208 2.48409 2.13448 19.2659
351 1 -1.1104 3.87626 -2.05332 15.0809
352 1 -1.1104 3.87963 3.52846 15.0818
353 2 2.2208 2.48241 -0.656381 16.476
354 2 2.2208 2.48582 4.92538 16.477
355 1 -1.1104 3.87791 0.73754 17.8708
356 1 -1.1104 3.87801 0.737578 15.0817
357 1 -1.1104 6.66909 3.5284 17.8712
369 1 -1.1104 6.66737 0.737562 15.0814
505 1 -1.1104 1.09027 3.5284 20.6611
363 1 -1.1104 6.66581 -2.05335 15.0812
394 2 2.2208 2.48758 7.71629 13.6881
598 2 2.2208 13.6489 13.298 24.8469
564 2 2.2208 5.2753 4.92541 13.6876
669 2 2.2208 13.6527 18.8816 13.6903
367 1 -1.1104 3.87627 -2.05334 20.6598
671 2 2.2208 10.8615 16.0897 13.6897
358 1 -1.1104 6.66919 3.52846 15.0822
368 1 -1.1104 6.66747 0.737522 17.8711
362 1 -1.1104 6.66572 -2.05338 17.8703
370 2 2.2208 10.8525 2.13449 16.4765
371 1 -1.1104 12.2446 -2.05343 17.8703
372 1 -1.1104 12.248 3.52848 17.8713
373 1 -1.1104 12.2447 -2.05342 15.0813
374 1 -1.1104 12.2481 3.52855 15.0822
375 1 -1.1104 12.2464 0.737527 17.8712
376 2 2.2208 10.8508 -0.656468 19.2655
377 2 2.2208 10.8542 4.92539 19.2664
378 1 -1.1104 12.2463 0.737561 15.0814
379 1 -1.1104 9.45527 -2.05341 17.8707
380 1 -1.1104 9.45865 3.52844 17.8716
381 2 2.2208 8.06301 2.13444 19.2659
382 1 -1.1104 9.45517 -2.0534 15.0809
383 1 -1.1104 9.45855 3.52848 15.0818
384 2 2.2208 8.06132 -0.656434 16.476
385 2 2.2208 8.06475 4.92539 16.477
386 1 -1.1104 9.45683 0.73752 17.8708
387 1 -1.1104 9.45692 0.73755 15.0817
391 1 -1.1104 9.45693 0.73749 20.6606
536 1 -1.1104 9.45855 3.52839 20.6607
447 2 2.2208 13.6545 21.6707 22.059
392 1 -1.1104 9.45517 -2.05342 20.6598
541 1 -1.1104 12.2463 0.737498 20.6602
388 2 2.2208 13.6436 4.92552 16.477
537 2 2.2208 13.6419 2.13449 19.2659
395 2 2.2208 5.27707 7.71622 16.4775
396 2 2.2208 5.28066 13.2978 16.4786
397 1 -1.1104 1.09366 9.1101 17.8723
398 1 -1.1104 1.09376 9.1102 15.0832
399 1 -1.1104 1.092 6.31929 17.8721
400 1 -1.1104 1.09551 11.9009 17.8732
401 2 2.2208 5.27884 10.5069 19.2675
402 1 -1.1104 1.0919 6.31937 15.0824
403 1 -1.1104 1.09543 11.901 15.0834
404 1 -1.1104 3.88325 9.11005 17.8727
405 2 2.2208 2.48758 7.71614 19.2669
406 2 2.2208 2.49111 13.2976 19.268
407 1 -1.1104 3.88317 9.11015 15.0829
408 2 2.2208 2.48935 10.507 16.478
409 1 -1.1104 3.88138 6.31925 17.8718
410 1 -1.1104 3.88494 11.9008 17.8728
411 1 -1.1104 3.88149 6.31932 15.0827
412 1 -1.1104 3.88505 11.901 15.0838
569 1 -1.1104 1.09191 6.31922 20.6612
416 1 -1.1104 6.67096 6.31927 17.8721
418 1 -1.1104 6.67276 9.11022 15.0833
413 1 -1.1104 6.67454 11.9009 17.8732
414 1 -1.1104 6.67265 9.11012 17.8723
659 1 -1.1104 12.257 17.483 20.6632
419 1 -1.1104 3.885 11.9007 20.6627
567 1 -1.1104 3.88314 9.10996 20.6617
420 1 -1.1104 1.0954 11.9008 20.6623
475 1 -1.1104 9.46952 20.2731 20.6637
663 1 -1.1104 9.46948 20.2727 23.4539
622 2 2.2208 13.6471 10.5072 22.0569
533 2 2.2208 10.8653 21.6723 13.6908
415 1 -1.1104 6.67087 6.31935 15.0823
417 1 -1.1104 6.67447 11.9011 15.0834
423 2 2.2208 10.856 7.71641 16.4775
424 2 2.2208 10.8596 13.2984 16.4785
425 1 -1.1104 12.2515 9.11044 17.8722
426 1 -1.1104 12.2516 9.11059 15.0832
427 1 -1.1104 12.2498 6.31945 17.8721
428 1 -1.1104 12.2534 11.9015 17.8732
429 2 2.2208 10.8578 10.5072 19.2674
430 1 -1.1104 12.2497 6.31955 15.0823
431 1 -1.1104 12.2533 11.9017 15.0833
432 1 -1.1104 9.4622 9.11026 17.8727
433 2 2.2208 8.06653 7.71619 19.2669
434 2 2.2208 8.07013 13.2979 19.268
435 1 -1.1104 9.46212 9.11039 15.0828
436 2 2.2208 8.06834 10.5072 16.478
437 1 -1.1104 9.46031 6.31935 17.8717
438 1 -1.1104 9.46393 11.9012 17.8728
439 1 -1.1104 9.46042 6.31943 15.0827
440 1 -1.1104 9.46403 11.9014 15.0838
601 1 -1.1104 12.2497 6.31936 20.6612
603 1 -1.1104 9.46041 6.31926 20.6616
444 1 -1.1104 9.46398 11.9009 20.6626
596 1 -1.1104 12.2533 11.9012 20.6622
597 2 2.2208 13.6454 7.71629 24.8458
441 2 2.2208 13.649 13.2984 19.2679
448 2 2.2208 5.28435 18.8793 16.4796
449 1 -1.1104 1.09719 14.6916 17.8734
450 1 -1.1104 1.10074 20.2728 17.8745
451 1 -1.1104 1.09728 14.6918 15.0843
452 1 -1.1104 1.10081 20.2731 15.0854
453 1 -1.1104 1.09903 17.4822 17.8743
454 2 2.2208 5.28244 16.0883 19.2686
455 2 2.2208 5.28616 21.6693 19.2697
456 1 -1.1104 1.09898 17.4825 15.0845
457 1 -1.1104 3.88682 14.6915 17.8738
458 1 -1.1104 3.89045 20.2726 17.8749
459 2 2.2208 2.4947 18.8789 19.2691
460 1 -1.1104 3.88677 14.6917 15.0839
461 1 -1.1104 3.89045 20.273 15.085
462 2 2.2208 2.49292 16.0885 16.4791
463 2 2.2208 2.49654 21.6697 16.4802
464 1 -1.1104 3.88857 17.4821 17.8739
465 1 -1.1104 3.88867 17.4824 15.0849
466 1 -1.1104 6.67821 17.4827 15.0844
476 1 -1.1104 6.68008 20.273 17.8744
468 1 -1.1104 6.67629 14.6917 17.8733
502 2 2.2208 8.06655 7.71636 13.6881
478 1 -1.1104 6.67821 17.4823 17.8743
627 1 -1.1104 6.67631 14.6914 20.6632
629 1 -1.1104 1.09725 14.6914 20.6632
471 1 -1.1104 1.1008 20.2725 20.6643
473 1 -1.1104 3.88858 17.4819 20.6638
668 2 2.2208 8.07394 18.8801 13.6903
467 1 -1.1104 6.6764 14.6919 15.0844
477 1 -1.1104 6.68017 20.2734 15.0855
480 2 2.2208 10.8634 18.8805 16.4796
481 1 -1.1104 12.2552 14.6925 17.8732
482 1 -1.1104 12.2591 20.2748 17.8742
483 1 -1.1104 12.2553 14.6929 15.0843
484 1 -1.1104 12.2591 20.2757 15.0854
485 1 -1.1104 12.2571 17.4836 17.8742
486 2 2.2208 10.8614 16.089 19.2685
487 2 2.2208 10.8652 21.6708 19.2695
488 1 -1.1104 12.2571 17.4842 15.0844
489 1 -1.1104 9.46584 14.6921 17.8738
490 1 -1.1104 9.46963 20.2738 17.8748
491 2 2.2208 8.07385 18.8793 19.2691
492 1 -1.1104 9.46581 14.6924 15.0839
493 1 -1.1104 9.4697 20.2745 15.0849
494 2 2.2208 8.07202 16.0889 16.4791
495 2 2.2208 8.07586 21.6706 16.4801
496 1 -1.1104 9.4677 17.483 17.8738
497 1 -1.1104 9.46778 17.4834 15.0849
674 2 2.2208 13.6402 -0.656443 16.476
479 2 2.2208 13.6546 21.6727 16.48
657 1 -1.1104 9.46573 14.6917 20.6627
498 1 -1.1104 12.2552 14.6921 20.6632
500 2 2.2208 13.6508 16.0899 16.479
563 2 2.2208 13.6527 18.8805 19.269
660 1 -1.1104 12.257 17.4826 23.4532
506 1 -1.1104 3.87963 3.52837 20.6607
661 1 -1.1104 9.46576 14.6915 23.4527
528 1 -1.1104 6.6692 3.52836 20.6611
667 2 2.2208 8.07017 13.2982 13.6892
509 1 -1.1104 6.66738 0.73749 20.6602
474 1 -1.1104 12.2551 14.6918 23.4522
507 1 -1.1104 1.0869 -2.05332 20.6601
504 1 -1.1104 3.87802 0.737527 20.6606
508 1 -1.1104 1.08846 0.737547 20.6602
510 2 2.2208 5.27357 2.13442 22.0554
511 1 -1.1104 1.08682 -2.05333 23.4492
512 1 -1.1104 1.09018 3.52837 23.4502
513 1 -1.1104 1.08693 -2.05332 26.239
514 1 -1.1104 1.0903 3.52836 26.24
515 1 -1.1104 1.08858 0.737537 23.45
516 2 2.2208 5.27189 -0.656439 24.8443
517 1 -1.1104 1.08849 0.737528 26.2391
518 1 -1.1104 3.87637 -2.05335 23.4495
519 1 -1.1104 3.87975 3.52834 23.4505
520 2 2.2208 2.48413 2.13442 24.8448
521 1 -1.1104 3.87628 -2.05335 26.2387
522 1 -1.1104 3.87966 3.52833 26.2396
523 2 2.2208 2.48242 -0.656414 22.0549
524 2 2.2208 2.48584 4.92529 22.0559
525 1 -1.1104 3.87794 0.737499 23.4497
526 1 -1.1104 3.87805 0.737498 26.2395
527 2 2.2208 5.27531 4.92524 24.8453
529 1 -1.1104 6.66583 -2.05336 26.239
539 1 -1.1104 6.66572 -2.05337 23.4492
544 1 -1.1104 6.6674 0.737497 26.2391
532 2 2.2208 5.27886 10.5071 13.6886
389 2 2.2208 8.06301 2.13451 13.6871
443 2 2.2208 13.6472 10.5076 16.478
675 2 2.2208 13.6402 -0.656456 22.0549
542 1 -1.1104 12.2481 3.52843 20.6611
658 1 -1.1104 9.4693 20.2727 26.243
540 1 -1.1104 6.66923 3.52835 26.24
531 1 -1.1104 6.6691 3.52833 23.4501
530 1 -1.1104 6.66749 0.737493 23.45
543 1 -1.1104 6.66582 -2.05338 20.6601
538 1 -1.1104 12.2447 -2.05343 20.6601
545 2 2.2208 10.8525 2.13444 22.0554
546 1 -1.1104 12.2446 -2.05339 23.4492
547 1 -1.1104 12.248 3.52842 23.4502
548 1 -1.1104 12.2447 -2.05334 26.239
549 1 -1.1104 12.2481 3.52845 26.24
550 1 -1.1104 12.2464 0.73752 23.45
551 2 2.2208 10.8508 -0.656433 24.8443
552 2 2.2208 10.8542 4.92534 24.8453
553 1 -1.1104 12.2463 0.737557 26.2391
554 1 -1.1104 9.45527 -2.05339 23.4496
555 1 -1.1104 9.45866 3.52837 23.4505
556 2 2.2208 8.06303 2.13443 24.8448
557 1 -1.1104 9.45518 -2.05336 26.2387
558 1 -1.1104 9.45856 3.52839 26.2396
559 2 2.2208 8.06133 -0.656463 22.0549
560 2 2.2208 8.06476 4.92529 22.0559
561 1 -1.1104 9.45683 0.737489 23.4497
562 1 -1.1104 9.45695 0.737523 26.2395
361 2 2.2208 13.6419 2.13449 24.8448
534 2 2.2208 13.6436 4.92541 22.0559
672 2 2.2208 2.49114 13.2979 13.6892
421 1 -1.1104 3.88148 6.31918 20.6616
565 1 -1.1104 12.2569 17.4825 26.2423
568 1 -1.1104 1.09375 9.11 20.6621
599 1 -1.1104 6.67085 6.3192 20.6612
570 2 2.2208 5.27706 7.71607 22.0564
571 2 2.2208 5.28059 13.2975 22.0575
572 1 -1.1104 1.09364 9.10996 23.4512
573 1 -1.1104 1.09375 9.10997 26.241
574 1 -1.1104 1.09203 6.31918 23.451
575 1 -1.1104 1.09548 11.9007 23.4521
576 2 2.2208 5.27879 10.5068 24.8464
577 1 -1.1104 1.09192 6.31917 26.2401
578 1 -1.1104 1.09534 11.9007 26.2413
579 1 -1.1104 3.88324 9.1099 23.4516
580 2 2.2208 2.48758 7.71606 24.8458
581 2 2.2208 2.49104 13.2975 24.847
582 1 -1.1104 3.8831 9.10992 26.2407
583 2 2.2208 2.48932 10.5068 22.0569
584 1 -1.1104 3.88139 6.31915 23.4507
585 1 -1.1104 3.88486 11.9006 23.4518
586 1 -1.1104 3.8815 6.31914 26.2405
587 1 -1.1104 3.88496 11.9006 26.2416
588 1 -1.1104 6.6726 9.10994 23.4512
600 1 -1.1104 6.67432 11.9007 26.2412
590 1 -1.1104 6.67096 6.31915 23.451
592 1 -1.1104 6.6727 9.10994 26.241
446 2 2.2208 2.49475 18.8794 13.6902
602 1 -1.1104 9.46209 9.11013 20.6617
589 1 -1.1104 6.67441 11.9008 20.6622
442 1 -1.1104 12.2516 9.11028 20.6621
651 2 2.2208 10.8613 16.0885 24.8475
594 1 -1.1104 6.67084 6.31916 26.2401
591 1 -1.1104 6.67273 9.10999 20.6621
593 1 -1.1104 6.67448 11.9007 23.4521
604 1 -1.1104 9.46217 9.11004 23.4516
605 1 -1.1104 12.2532 11.901 26.2412
606 1 -1.1104 12.2497 6.31932 26.2401
607 2 2.2208 10.8577 10.507 24.8464
608 1 -1.1104 12.2534 11.901 23.4521
609 1 -1.1104 12.2498 6.31931 23.451
610 1 -1.1104 12.2516 9.11018 26.241
611 1 -1.1104 12.2515 9.11018 23.4511
612 1 -1.1104 9.46393 11.9008 26.2416
613 1 -1.1104 9.46042 6.31924 26.2405
614 1 -1.1104 9.46384 11.9008 23.4517
615 1 -1.1104 9.4603 6.31923 23.4506
616 2 2.2208 8.06829 10.5069 22.0569
617 1 -1.1104 9.46204 9.11004 26.2406
618 2 2.2208 8.07004 13.2976 24.847
619 2 2.2208 8.06651 7.7161 24.8458
620 2 2.2208 10.856 7.71623 22.0564
621 2 2.2208 10.8595 13.2979 22.0574
632 1 -1.1104 6.67615 14.6913 23.4523
422 2 2.2208 13.6454 7.71642 19.2669
631 1 -1.1104 6.67992 20.2724 26.2435
666 1 -1.1104 6.67624 14.6913 26.2422
470 1 -1.1104 3.88669 14.6913 20.6628
472 1 -1.1104 3.89031 20.2723 20.664
624 1 -1.1104 1.09892 17.4821 20.6634
625 1 -1.1104 6.67791 17.4819 26.2424
633 2 2.2208 2.49285 16.0882 22.0581
634 2 2.2208 2.49647 21.6691 22.0593
635 1 -1.1104 3.8884 17.4818 23.4529
636 1 -1.1104 1.09901 17.482 23.4533
637 1 -1.1104 3.88657 14.6913 26.2418
638 1 -1.1104 3.88852 17.4819 26.2428
639 2 2.2208 2.49462 18.8788 24.8482
640 1 -1.1104 3.89015 20.2725 26.2431
641 2 2.2208 5.28421 18.8787 22.0587
642 1 -1.1104 1.09711 14.6914 23.4523
643 1 -1.1104 1.10065 20.2726 23.4536
644 2 2.2208 5.28234 16.0881 24.8476
645 2 2.2208 5.28601 21.6691 24.8489
646 1 -1.1104 1.09722 14.6915 26.2422
647 1 -1.1104 1.09883 17.4821 26.2425
648 1 -1.1104 1.10081 20.2728 26.2434
649 1 -1.1104 3.88674 14.6913 23.4527
650 1 -1.1104 3.89036 20.2723 23.4539
630 1 -1.1104 6.67807 17.482 20.6633
653 2 2.2208 13.6526 18.8796 24.8481
360 2 2.2208 5.28628 21.6702 13.6908
664 2 2.2208 8.07565 21.6694 22.0592
535 1 -1.1104 12.2589 20.2732 23.4533
566 2 2.2208 8.0719 16.0884 22.058
656 2 2.2208 10.8632 18.8794 22.0585
654 1 -1.1104 9.4656 14.6915 26.2418
503 1 -1.1104 12.2552 14.6918 26.2422
469 1 -1.1104 6.68 20.2724 20.6644
652 1 -1.1104 9.4675 17.4822 23.4528
365 2 2.2208 8.0737 18.8788 24.8482
499 1 -1.1104 9.46764 17.4824 20.6638
501 1 -1.1104 12.2589 20.2738 20.6642
665 1 -1.1104 9.46759 17.4821 26.2428
662 2 2.2208 13.6508 16.089 22.058
623 2 2.2208 10.8651 21.6698 24.8487
655 1 -1.1104 12.259 20.2732 26.2435
626 1 -1.1104 6.67809 17.4819 23.4533
628 1 -1.1104 6.67981 20.2723 23.4535
359 2 2.2208 2.48409 2.13454 13.6871
673 2 2.2208 5.28251 16.0888 13.6897
670 2 2.2208 13.649 13.2989 13.6892
364 2 2.2208 13.6454 7.71663 13.6881
445 2 2.2208 10.8578 10.5075 13.6886
595 2 2.2208 13.6419 2.13458 13.6871
393 2 2.2208 10.8542 4.9255 13.6876
390 2 2.2208 10.8508 -0.656427 13.6866
366 2 2.2208 5.27186 -0.656385 13.6866
676 2 2.2208 5.28795 24.4606 5.32346
677 2 2.2208 5.29189 30.0417 5.32461
678 1 -1.1104 1.10416 25.8545 1.13968
679 1 -1.1104 1.10436 25.8549 3.92922
680 1 -1.1104 1.10262 23.0638 1.1392
681 1 -1.1104 1.10635 28.6452 1.14069
682 2 2.2208 5.28983 27.2508 2.53487
683 1 -1.1104 1.10236 23.0642 3.92829
684 1 -1.1104 1.10592 28.6458 3.92971
685 1 -1.1104 3.89407 25.8537 1.13992
686 2 2.2208 2.49827 24.4606 2.53414
687 2 2.2208 2.50217 30.0421 2.53567
688 1 -1.1104 3.89381 25.8541 3.92893
689 2 2.2208 2.50016 27.2516 5.32403
690 1 -1.1104 3.89195 23.0633 1.13888
691 1 -1.1104 3.89563 28.6442 1.14035
692 1 -1.1104 3.89219 23.0636 3.92862
693 1 -1.1104 3.89587 28.6446 3.92987
694 1 -1.1104 6.68164 23.0635 3.92828
850 1 -1.1104 3.89406 25.8543 6.71857
695 1 -1.1104 6.68348 25.8534 1.13954
696 1 -1.1104 6.68573 28.6437 1.14068
702 1 -1.1104 6.68381 25.8539 3.9294
703 1 -1.1104 6.68183 23.0631 1.1393
1006 2 2.2208 8.09514 41.2172 8.12002
851 1 -1.1104 1.10606 28.6459 6.71906
846 1 -1.1104 1.10255 23.0643 6.71788
847 1 -1.1104 3.89575 28.6446 6.71878
1004 1 -1.1104 9.48908 39.816 9.51336
785 2 2.2208 13.6652 38.4105 -0.254425
697 1 -1.1104 6.68549 28.644 3.92953
706 2 2.2208 10.8672 24.4619 5.32377
707 2 2.2208 10.8713 30.0438 5.32532
708 1 -1.1104 12.2627 25.8547 1.13956
709 1 -1.1104 12.2632 25.8556 3.92985
710 1 -1.1104 12.261 23.0641 1.13944
711 1 -1.1104 12.2652 28.6451 1.14094
712 2 2.2208 10.8691 27.2517 2.53512
713 1 -1.1104 12.2608 23.0648 3.92843
714 1 -1.1104 12.2649 28.6462 3.92995
715 1 -1.1104 9.47347 25.8538 1.1401
716 2 2.2208 8.07754 24.4604 2.53423
717 2 2.2208 8.08152 30.0413 2.53574
718 1 -1.1104 9.47324 25.8544 3.92902
719 2 2.2208 8.07961 27.2516 5.32424
720 1 -1.1104 9.4712 23.0634 1.13885
721 1 -1.1104 9.47513 28.644 1.14023
722 1 -1.1104 9.47155 23.064 3.92892
723 1 -1.1104 9.47567 28.6449 3.93038
881 1 -1.1104 9.47541 28.6456 6.71907
725 1 -1.1104 12.2654 28.6482 6.72034
876 1 -1.1104 12.2628 25.857 6.71867
877 1 -1.1104 9.47135 23.0646 6.71775
705 1 -1.1104 6.68587 28.6446 6.71938
729 1 -1.1104 12.2611 23.0658 6.71851
724 2 2.2208 13.6585 27.2542 5.32468
786 2 2.2208 13.6623 32.8324 -0.252859
902 2 2.2208 13.6565 24.4619 2.53436
733 2 2.2208 5.29615 35.6231 5.32567
734 1 -1.1104 1.10787 31.4362 1.14131
735 1 -1.1104 1.11204 37.0187 1.14299
736 1 -1.1104 1.10797 31.4367 3.93057
737 1 -1.1104 1.11142 37.0192 3.93173
738 1 -1.1104 1.11038 34.2271 1.1424
739 2 2.2208 5.29392 32.832 2.53644
740 2 2.2208 5.29839 38.4142 2.53701
741 1 -1.1104 1.10953 34.2279 3.93111
742 1 -1.1104 3.89793 31.4346 1.14138
743 1 -1.1104 3.90197 37.016 1.14253
744 2 2.2208 2.50671 35.6244 2.53731
745 1 -1.1104 3.89751 31.435 3.93022
746 1 -1.1104 3.90095 37.0158 3.93088
747 2 2.2208 2.50428 32.8334 5.32523
748 2 2.2208 2.50929 38.4161 5.32579
749 1 -1.1104 3.89953 34.2253 1.1418
750 1 -1.1104 3.89949 34.2253 3.93098
759 1 -1.1104 3.90147 37.0149 6.72025
757 1 -1.1104 6.6894 34.2238 3.93047
762 1 -1.1104 6.68975 34.2241 1.14197
761 1 -1.1104 6.68734 31.4338 1.14096
929 1 -1.1104 6.68982 34.2236 6.72014
907 1 -1.1104 3.89957 34.2248 6.71974
906 1 -1.1104 1.10781 31.4366 6.71947
903 1 -1.1104 3.89771 31.4348 6.71962
905 1 -1.1104 6.68765 31.4342 6.7192
926 1 -1.1104 6.69136 37.0118 6.71966
874 2 2.2208 8.03295 46.7239 8.04741
753 2 2.2208 5.29639 35.6221 -0.251453
751 2 2.2208 2.51042 38.415 -0.250079
755 1 -1.1104 6.69097 37.0132 3.9309
782 2 2.2208 8.08793 38.4137 -0.25241
756 1 -1.1104 6.68772 31.4341 3.93055
758 1 -1.1104 6.69162 37.0146 1.14149
763 2 2.2208 10.8751 35.6256 5.32655
764 1 -1.1104 12.2668 31.4353 1.14094
765 1 -1.1104 12.2711 37.0153 1.14141
766 1 -1.1104 12.2677 31.4367 3.93156
767 1 -1.1104 12.2722 37.0158 3.93159
768 1 -1.1104 12.2695 34.2255 1.14203
769 2 2.2208 10.8731 32.8329 2.53679
770 2 2.2208 10.8746 38.4147 2.53747
771 1 -1.1104 12.2694 34.2265 3.93131
772 1 -1.1104 9.47761 31.4342 1.14152
773 1 -1.1104 9.48139 37.0149 1.14195
774 2 2.2208 8.08536 35.6229 2.53724
775 1 -1.1104 9.47739 31.4348 3.93027
776 1 -1.1104 9.48114 37.0142 3.9308
777 2 2.2208 8.08371 32.8326 5.32529
778 2 2.2208 8.08649 38.414 5.32736
779 1 -1.1104 9.4792 34.2244 1.14153
780 1 -1.1104 9.47994 34.2249 3.93138
937 1 -1.1104 12.2704 34.23 6.72252
783 2 2.2208 13.6643 35.6252 2.53723
781 2 2.2208 13.6627 32.8372 5.3264
788 2 2.2208 10.8744 35.6218 -0.251746
790 2 2.2208 2.52046 44.0007 -0.25166
970 1 -1.1104 6.7009 45.381 12.317
791 2 2.2208 5.30044 41.2037 5.32463