ITEM: TIMESTEP
327
ITEM: NUMBER OF ATOMS
17668
ITEM: BOX BOUNDS pp pp pp
-2.7717828229332220e-01 2.7617178282293317e+01
-3.4472205766305355e+00 3.3152722057663055e+02
-2.7717827830221448e-01 2.7617178278302212e+01
ITEM: ATOMS id type q x y z
1 2 2.2208 5.29426 2.13576 5.31373
2 1 -1.1104 1.10669 -2.05304 1.12856
3 1 -1.1104 1.11103 3.53008 1.12962
4 1 -1.1104 1.1068 -2.05306 3.91848
5 1 -1.1104 1.11116 3.53012 3.91954
6 1 -1.1104 1.10898 0.738516 1.12955
7 2 2.2208 5.29204 -0.655854 2.52378
8 2 2.2208 5.29639 4.9273 2.52481
9 1 -1.1104 1.10888 0.738523 3.91854
10 1 -1.1104 3.89626 -2.05305 1.12902
11 1 -1.1104 3.90062 3.53006 1.13007
12 2 2.2208 2.50476 2.13573 2.5243
13 1 -1.1104 3.89615 -2.05304 3.91801
14 1 -1.1104 3.90051 3.53011 3.91905
15 2 2.2208 2.50261 -0.655846 5.31322
16 2 2.2208 2.50692 4.92736 5.31427
17 1 -1.1104 3.89833 0.738507 1.12908
18 1 -1.1104 3.89847 0.73853 3.919
31 1 -1.1104 6.68563 -2.05307 1.12859
19 1 -1.1104 1.11107 3.53016 6.70851
30 1 -1.1104 6.68791 0.738499 1.12955
32 1 -1.1104 6.68997 3.53007 1.1296
33 1 -1.1104 6.6901 3.53013 3.91952
177 1 -1.1104 3.90067 3.53015 6.70895
207 1 -1.1104 6.69001 3.53019 6.70848
176 1 -1.1104 1.10903 0.738541 6.70844
205 1 -1.1104 6.68568 -2.05304 6.70748
20 1 -1.1104 6.68576 -2.05304 3.91851
9511 2 2.2208 13.667 7.71965 13.6831
25 1 -1.1104 3.8984 0.738543 6.70797
179 1 -1.1104 1.10672 -2.05306 6.70745
178 1 -1.1104 3.89632 -2.05304 6.70793
29 1 -1.1104 6.68782 0.738527 3.91854
34 2 2.2208 10.8732 2.13585 5.31379
35 1 -1.1104 12.2645 -2.0532 1.12865
36 1 -1.1104 12.2689 3.5301 1.12963
37 1 -1.1104 12.2646 -2.05311 3.91855
38 1 -1.1104 12.269 3.53024 3.91956
39 1 -1.1104 12.2668 0.738464 1.1296
40 2 2.2208 10.871 -0.655885 2.52384
42 1 -1.1104 12.2667 0.738562 3.9186
43 1 -1.1104 9.4752 -2.05312 1.12907
44 1 -1.1104 9.47954 3.53009 1.13008
45 2 2.2208 8.08368 2.13574 2.52431
46 1 -1.1104 9.47509 -2.05307 3.91806
47 1 -1.1104 9.47944 3.53017 3.91907
48 2 2.2208 8.08154 -0.655817 5.31325
49 2 2.2208 8.08587 4.92741 5.31426
50 1 -1.1104 9.47725 0.73848 1.12913
51 1 -1.1104 9.47739 0.738566 3.91904
41 2 2.2208 10.8753 4.92739 2.52482
58 1 -1.1104 9.47732 0.738599 6.70802
52 1 -1.1104 6.68798 0.738577 6.70846
55 1 -1.1104 9.47525 -2.05303 6.70797
57 1 -1.1104 12.2689 3.53034 6.70853
59 1 -1.1104 12.2669 0.738644 6.70852
180 2 2.2208 13.6604 -0.655843 5.31331
670 2 2.2208 8.08817 7.71923 13.683
663 2 2.2208 8.08381 2.13582 13.682
61 2 2.2208 5.29854 7.71894 5.31479
62 2 2.2208 5.30288 13.302 5.31589
63 1 -1.1104 1.11532 9.11315 1.13066
64 1 -1.1104 1.11542 9.11326 3.92057
65 1 -1.1104 1.11329 6.32162 1.1306
66 1 -1.1104 1.11759 11.9046 1.1316
67 2 2.2208 5.30071 10.5103 2.52588
68 1 -1.1104 1.11317 6.3217 3.9196
69 1 -1.1104 1.11741 11.9048 3.92066
70 1 -1.1104 3.90494 9.11308 1.13109
71 2 2.2208 2.50905 7.71885 2.52536
72 2 2.2208 2.51335 13.3018 2.52638
73 1 -1.1104 3.90479 9.11319 3.92011
74 2 2.2208 2.51118 10.5105 5.31534
75 1 -1.1104 3.90265 6.3216 1.13012
76 1 -1.1104 3.90697 11.9045 1.13116
77 1 -1.1104 3.90278 6.32165 3.92005
78 1 -1.1104 3.90708 11.9047 3.92111
92 1 -1.1104 6.69214 6.32168 3.91957
94 1 -1.1104 6.69227 6.32161 1.13057
237 1 -1.1104 6.69229 6.3218 6.70949
236 1 -1.1104 1.11331 6.32177 6.70948
80 1 -1.1104 3.90691 11.9048 6.71011
85 1 -1.1104 3.90493 9.11331 6.71002
93 1 -1.1104 6.69432 9.11311 1.13062
91 1 -1.1104 6.69645 11.9047 3.92064
658 2 2.2208 13.6627 2.13594 13.6821
235 1 -1.1104 3.90267 6.32172 6.70903
664 2 2.2208 10.8754 4.92764 13.6825
9501 2 2.2208 13.6758 18.8883 13.6849
81 1 -1.1104 6.69444 9.11322 3.92059
113 1 -1.1104 6.69662 11.9049 6.7106
90 1 -1.1104 6.69663 11.9045 1.13163
95 2 2.2208 10.8775 7.71918 5.31481
96 2 2.2208 10.8819 13.3025 5.31589
97 1 -1.1104 12.2732 9.11337 1.13062
98 1 -1.1104 12.2734 9.11357 3.92062
99 1 -1.1104 12.2712 6.32175 1.1306
100 1 -1.1104 12.2756 11.905 1.13164
101 2 2.2208 10.8797 10.5106 2.52588
102 1 -1.1104 12.271 6.3219 3.91959
103 1 -1.1104 12.2754 11.9052 3.92063
104 1 -1.1104 9.48392 9.11322 1.13111
105 2 2.2208 8.08803 7.7189 2.52534
106 2 2.2208 8.09241 13.3019 2.5264
107 1 -1.1104 9.48377 9.11337 3.9201
108 2 2.2208 8.09019 10.5106 5.31535
109 1 -1.1104 9.4816 6.32167 1.1301
110 1 -1.1104 9.48598 11.9047 1.13113
111 1 -1.1104 9.48175 6.32179 3.92006
112 1 -1.1104 9.48612 11.9049 3.92116
8905 2 2.2208 13.6713 13.3025 2.52639
262 1 -1.1104 12.2756 11.9055 6.71064
8901 2 2.2208 13.6669 7.71912 2.52536
82 1 -1.1104 6.69429 9.11339 6.70955
117 1 -1.1104 12.2732 9.11379 6.70956
21 1 -1.1104 12.2823 20.283 12.2902
121 2 2.2208 5.30739 18.8848 5.31687
122 1 -1.1104 1.11961 14.696 1.13165
123 1 -1.1104 1.12404 20.2786 1.13253
124 1 -1.1104 1.11972 14.6962 3.92158
125 1 -1.1104 1.12417 20.2789 3.92247
126 1 -1.1104 1.12194 17.4874 1.13253
127 2 2.2208 5.30511 16.0931 2.52691
128 2 2.2208 5.30972 21.6756 2.52782
129 1 -1.1104 1.12176 17.4876 3.92165
130 1 -1.1104 3.90928 14.6959 1.13212
131 1 -1.1104 3.91377 20.2783 1.13303
132 2 2.2208 2.5178 18.8845 2.52734
133 1 -1.1104 3.9091 14.6961 3.92117
134 1 -1.1104 3.9136 20.2786 3.92209
135 2 2.2208 2.51553 16.0935 5.31637
136 2 2.2208 2.52006 21.6761 5.31724
137 1 -1.1104 3.91137 17.4871 1.13214
138 1 -1.1104 3.9115 17.4874 3.92214
151 1 -1.1104 6.70091 17.4875 3.92165
150 1 -1.1104 6.70322 20.2783 1.13255
139 1 -1.1104 6.70343 20.2787 3.92269
290 1 -1.1104 1.12189 17.488 6.71152
141 1 -1.1104 3.91377 20.2791 6.71204
152 1 -1.1104 6.69868 14.6959 1.13164
291 1 -1.1104 1.1239 20.2794 6.71155
289 1 -1.1104 3.91131 17.4877 6.71112
145 1 -1.1104 6.69866 14.6964 6.71062
140 1 -1.1104 6.70107 17.4872 1.13265
174 1 -1.1104 6.70324 20.2792 6.71157
203 2 2.2208 8.097 18.8857 8.10633
8964 2 2.2208 13.6782 21.6781 5.31746
153 1 -1.1104 6.69883 14.6961 3.92168
8985 2 2.2208 13.6758 18.8856 2.52737
9023 2 2.2208 13.6735 16.0945 5.31642
154 2 2.2208 10.8865 18.8857 5.31695
155 1 -1.1104 12.2777 14.6965 1.13159
156 1 -1.1104 12.2822 20.2793 1.13247
157 1 -1.1104 12.2778 14.6968 3.92171
158 1 -1.1104 12.2825 20.2799 3.92278
159 1 -1.1104 12.2801 17.4879 1.13262
160 2 2.2208 10.8841 16.0937 2.5269
161 2 2.2208 10.8888 21.6765 2.52788
162 1 -1.1104 12.2799 17.4884 3.92165
163 1 -1.1104 9.48834 14.6962 1.13216
164 1 -1.1104 9.49293 20.2787 1.13314
165 2 2.2208 8.09695 18.8846 2.5274
166 1 -1.1104 9.48817 14.6964 3.92116
167 1 -1.1104 9.49278 20.2792 3.92212
168 2 2.2208 8.09465 16.0936 5.31642
169 2 2.2208 8.09934 21.6765 5.31739
170 1 -1.1104 9.49047 17.4875 1.13208
171 1 -1.1104 9.49066 17.4879 3.92224
257 1 -1.1104 12.2776 14.6973 6.71063
201 1 -1.1104 12.2802 17.4891 6.71177
233 1 -1.1104 9.49309 20.2799 6.7123
172 1 -1.1104 9.48838 14.6968 6.7112
292 1 -1.1104 6.70113 17.4879 6.71168
173 1 -1.1104 12.2822 20.2809 6.71167
60 1 -1.1104 12.2826 20.282 9.50174
9106 2 2.2208 13.6669 7.7195 8.10427
673 2 2.2208 8.09699 18.8863 13.6849
654 2 2.2208 10.8842 16.0952 13.6845
9105 2 2.2208 13.6691 10.5115 10.8942
181 2 2.2208 5.29433 2.1358 10.8926
182 1 -1.1104 1.10678 -2.0531 12.2863
183 1 -1.1104 1.11116 3.53022 12.2873
184 1 -1.1104 1.10687 -2.05309 9.49736
185 1 -1.1104 1.11124 3.5302 9.49837
186 1 -1.1104 1.10909 0.738555 12.2873
187 2 2.2208 5.29212 -0.655815 8.10268
188 2 2.2208 5.29644 4.92742 8.10369
189 1 -1.1104 1.10897 0.738545 9.4974
190 1 -1.1104 3.89635 -2.05308 12.2868
191 1 -1.1104 3.90075 3.53021 12.2878
192 2 2.2208 2.50482 2.13577 8.10317
193 1 -1.1104 3.89624 -2.05306 9.49688
194 1 -1.1104 3.9006 3.53018 9.4979
195 2 2.2208 2.50267 -0.655851 10.8921
196 2 2.2208 2.50701 4.92744 10.8931
197 1 -1.1104 3.89846 0.738555 12.2868
198 1 -1.1104 3.89856 0.738558 9.49788
200 1 -1.1104 6.69019 3.53024 9.49839
210 1 -1.1104 6.68582 -2.05304 9.49738
213 1 -1.1104 6.68572 -2.05307 12.2863
661 2 2.2208 2.50486 2.13578 13.682
660 2 2.2208 5.29214 -0.655858 13.6815
212 1 -1.1104 6.68791 0.738589 9.49741
657 2 2.2208 5.29652 4.92745 13.6825
56 1 -1.1104 12.2646 -2.05307 6.70754
22 2 2.2208 13.6626 2.13596 8.10326
209 1 -1.1104 6.69012 3.53024 12.2873
54 1 -1.1104 9.4796 3.53027 6.70899
211 1 -1.1104 6.68803 0.738582 12.2873
202 2 2.2208 13.6605 -0.655796 10.8922
9029 2 2.2208 13.6648 4.92779 10.8932
214 2 2.2208 10.8732 2.13592 10.8926
215 1 -1.1104 12.2646 -2.05311 12.2864
216 1 -1.1104 12.269 3.53044 12.2874
217 1 -1.1104 12.2647 -2.05306 9.49743
218 1 -1.1104 12.2691 3.53044 9.49845
219 1 -1.1104 12.2669 0.738658 12.2874
220 2 2.2208 10.871 -0.655795 8.10273
221 2 2.2208 10.8754 4.92761 8.10373
222 1 -1.1104 12.2668 0.738678 9.49747
223 1 -1.1104 9.47529 -2.05309 12.2868
224 1 -1.1104 9.47968 3.53033 12.2878
225 2 2.2208 8.08376 2.13584 8.1032
226 1 -1.1104 9.47517 -2.05305 9.49693
227 1 -1.1104 9.47953 3.53032 9.49793
228 2 2.2208 8.08161 -0.655808 10.8921
229 2 2.2208 8.08597 4.92754 10.8931
230 1 -1.1104 9.47738 0.738606 12.2869
231 1 -1.1104 9.47747 0.738643 9.49792
148 1 -1.1104 9.49288 20.2808 9.50096
8877 2 2.2208 13.6691 10.5111 5.31536
662 2 2.2208 10.871 -0.655848 13.6816
8933 2 2.2208 13.6647 4.92759 5.31431
119 1 -1.1104 9.49307 20.2814 12.2909
232 1 -1.1104 9.48842 14.6975 12.2899
79 1 -1.1104 1.11529 9.11339 6.70958
86 1 -1.1104 1.11754 11.905 6.71055
256 2 2.2208 10.8865 18.8871 10.8957
238 2 2.2208 5.29862 7.71911 10.8936
239 2 2.2208 5.3029 13.3024 10.8947
240 1 -1.1104 1.11535 9.11355 12.2884
241 1 -1.1104 1.11542 9.11351 9.49941
242 1 -1.1104 1.11339 6.32189 12.2883
243 1 -1.1104 1.11756 11.9052 12.2893
244 2 2.2208 5.30071 10.5106 8.10476
245 1 -1.1104 1.11322 6.32184 9.49846
246 1 -1.1104 1.1174 11.9052 9.49952
247 1 -1.1104 3.90499 9.1135 12.2888
248 2 2.2208 2.50907 7.71903 8.10422
249 2 2.2208 2.51332 13.3022 8.10529
250 1 -1.1104 3.9048 9.11343 9.49897
251 2 2.2208 2.51121 10.5108 10.8942
252 1 -1.1104 3.90278 6.32185 12.2878
253 1 -1.1104 3.907 11.9051 12.2889
254 1 -1.1104 3.90284 6.32181 9.49889
255 1 -1.1104 3.90709 11.905 9.49998
265 1 -1.1104 6.69667 11.9053 12.2894
667 2 2.2208 2.51337 13.3024 13.684
665 2 2.2208 2.50916 7.7191 13.683
668 2 2.2208 5.30081 10.5108 13.6835
266 1 -1.1104 6.69648 11.9051 9.49949
268 1 -1.1104 6.6924 6.32192 12.2883
118 1 -1.1104 9.48162 6.32192 6.70902
116 1 -1.1104 9.48596 11.9052 6.71009
114 1 -1.1104 9.48393 9.11358 6.71006
267 1 -1.1104 6.69222 6.32187 9.49842
269 1 -1.1104 6.69441 9.11359 12.2883
263 1 -1.1104 6.69446 9.11353 9.49945
115 1 -1.1104 12.2712 6.32208 6.70953
270 1 -1.1104 9.48616 11.9055 9.50003
271 1 -1.1104 9.48181 6.32204 9.49893
272 1 -1.1104 9.48608 11.9056 12.2888
273 1 -1.1104 9.48176 6.32207 12.2878
274 2 2.2208 8.09025 10.511 10.8942
275 1 -1.1104 9.48381 9.11373 9.49896
276 2 2.2208 8.09241 13.3025 8.10532
277 2 2.2208 8.08805 7.71916 8.10423
278 2 2.2208 10.8776 7.71944 10.8936
279 2 2.2208 10.8819 13.3031 10.8947
280 1 -1.1104 12.2733 9.11414 12.2884
281 1 -1.1104 12.2734 9.11402 9.49949
282 1 -1.1104 12.2713 6.32228 12.2884
283 1 -1.1104 12.2756 11.9061 12.2894
284 2 2.2208 10.8797 10.5111 8.10478
285 1 -1.1104 12.2711 6.32221 9.49847
286 1 -1.1104 12.2754 11.9059 9.4995
287 1 -1.1104 9.48401 9.11385 12.2888
669 2 2.2208 8.0925 13.3027 13.684
8869 2 2.2208 13.6713 13.3032 8.10533
656 2 2.2208 10.8798 10.5113 13.6835
9515 2 2.2208 13.6714 13.3036 13.684
144 1 -1.1104 3.90926 14.6963 6.7111
674 2 2.2208 5.30962 21.6772 13.6852
655 2 2.2208 5.30514 16.0941 13.6845
143 1 -1.1104 1.11953 14.6965 6.71063
294 1 -1.1104 3.91148 17.4881 9.50097
297 2 2.2208 2.51773 18.8853 8.10623
300 1 -1.1104 3.9091 14.6966 9.50003
301 1 -1.1104 1.12177 17.4886 12.2902
302 2 2.2208 2.51549 16.094 10.8951
303 2 2.2208 2.51989 21.6771 10.8959
304 1 -1.1104 3.91134 17.4883 12.2898
305 1 -1.1104 3.91364 20.2798 12.2907
306 1 -1.1104 3.90925 14.6968 12.2898
307 1 -1.1104 1.12399 20.2799 9.50128
308 1 -1.1104 1.12167 17.4884 9.50051
309 2 2.2208 5.30972 21.6766 8.1067
310 1 -1.1104 1.11966 14.6968 9.50044
311 2 2.2208 5.30511 16.0938 8.10582
312 1 -1.1104 1.12377 20.2802 12.2902
313 1 -1.1104 1.11955 14.6969 12.2894
314 2 2.2208 5.30738 18.8856 10.8956
315 1 -1.1104 3.91356 20.2796 9.5009
675 2 2.2208 2.51766 18.8857 13.6848
206 1 -1.1104 6.70332 20.2803 12.2902
89 1 -1.1104 6.70097 17.4883 9.50048
299 1 -1.1104 6.70348 20.2799 9.50155
9137 2 2.2208 13.6735 16.0957 10.8952
672 2 2.2208 10.8888 21.6797 13.6852
87 1 -1.1104 12.2779 14.6978 9.5006
260 2 2.2208 8.0947 16.0944 10.8952
258 1 -1.1104 9.49058 17.4894 12.2898
261 2 2.2208 10.8842 16.0946 8.10586
28 1 -1.1104 12.2777 14.6982 12.2893
9136 2 2.2208 13.6758 18.8872 8.10639
147 2 2.2208 10.8889 21.6783 8.10688
9142 2 2.2208 13.6781 21.6806 10.8961
288 1 -1.1104 12.2799 17.4899 9.50054
234 1 -1.1104 9.49047 17.4884 6.71112
264 2 2.2208 8.09938 21.678 10.8961
120 1 -1.1104 9.48822 14.6972 9.50001
149 1 -1.1104 6.69885 14.6968 9.50056
175 1 -1.1104 6.70112 17.4886 12.2904
296 1 -1.1104 6.69875 14.697 12.2893
88 1 -1.1104 12.2801 17.4904 12.2904
204 1 -1.1104 9.49073 17.489 9.50114
26 2 2.2208 13.6625 2.13577 2.52435
338 2 2.2208 5.2943 2.13573 16.4714
339 1 -1.1104 1.10677 -2.05318 17.8651
340 1 -1.1104 1.11113 3.53012 17.8662
341 1 -1.1104 1.10688 -2.05314 15.0762
342 1 -1.1104 1.11125 3.5302 15.0772
343 1 -1.1104 1.10904 0.738466 17.8661
344 2 2.2208 5.2921 -0.655947 19.2604
345 2 2.2208 5.29648 4.92728 19.2613
346 1 -1.1104 1.10896 0.738539 15.0762
347 1 -1.1104 3.89634 -2.05317 17.8656
348 1 -1.1104 3.9007 3.53008 17.8666
349 2 2.2208 2.50481 2.13569 19.2609
350 1 -1.1104 3.89624 -2.05312 15.0757
351 1 -1.1104 3.90064 3.53015 15.0767
352 2 2.2208 2.50265 -0.655907 16.4709
353 2 2.2208 2.50703 4.92737 16.4719
354 1 -1.1104 3.89841 0.738458 17.8657
355 1 -1.1104 3.89854 0.738515 15.0767
370 1 -1.1104 6.6858 -2.05313 15.0762
363 1 -1.1104 3.89849 0.738438 20.6556
368 1 -1.1104 6.68571 -2.05318 17.8652
361 1 -1.1104 1.10686 -2.05317 20.655
372 1 -1.1104 6.68791 0.738527 15.0762
371 1 -1.1104 6.68798 0.738457 17.8661
369 1 -1.1104 6.69021 3.53019 15.0772
364 1 -1.1104 6.6858 -2.05319 20.6551
9327 2 2.2208 13.6648 4.92738 22.0508
362 1 -1.1104 3.90057 3.53004 20.6556
511 1 -1.1104 1.11119 3.53007 20.6561
395 1 -1.1104 6.69015 3.53002 20.6561
535 1 -1.1104 6.68786 0.738426 20.6551
359 1 -1.1104 6.6901 3.53009 17.8662
373 2 2.2208 10.8732 2.13581 16.4715
374 1 -1.1104 12.2646 -2.05322 17.8652
375 1 -1.1104 12.269 3.53025 17.8662
376 1 -1.1104 12.2647 -2.05317 15.0763
377 1 -1.1104 12.2691 3.53038 15.0773
378 1 -1.1104 12.2669 0.738494 17.8662
379 2 2.2208 10.871 -0.655969 19.2604
380 2 2.2208 10.8754 4.92741 19.2614
381 1 -1.1104 12.2668 0.738587 15.0763
382 1 -1.1104 9.47527 -2.05319 17.8657
383 1 -1.1104 9.47965 3.53016 17.8666
384 2 2.2208 8.08376 2.13569 19.2609
385 1 -1.1104 9.47517 -2.05313 15.0758
386 1 -1.1104 9.47959 3.53027 15.0767
387 2 2.2208 8.08158 -0.655916 16.4709
388 2 2.2208 8.086 4.92744 16.4719
389 1 -1.1104 9.47735 0.738479 17.8657
390 1 -1.1104 9.47747 0.738564 15.0767
9263 2 2.2208 13.6692 10.5114 16.4729
394 1 -1.1104 9.47516 -2.05321 20.6546
545 1 -1.1104 9.47952 3.53007 20.6556
396 1 -1.1104 9.47743 0.738422 20.6556
391 1 -1.1104 12.2691 3.53012 20.6561
358 2 2.2208 13.6626 2.13576 19.2609
9210 2 2.2208 13.6649 4.92766 16.472
9268 2 2.2208 13.6714 13.303 19.2627
9163 2 2.2208 13.6781 21.6767 27.6325
397 2 2.2208 5.29869 7.719 16.4724
398 2 2.2208 5.30301 13.3023 16.4734
399 1 -1.1104 1.11547 9.11339 17.8671
400 1 -1.1104 1.11551 9.11353 15.0782
401 1 -1.1104 1.11339 6.32174 17.8671
402 1 -1.1104 1.11764 11.905 17.868
403 2 2.2208 5.30085 10.5104 19.2623
404 1 -1.1104 1.11332 6.32187 15.0772
405 1 -1.1104 1.11753 11.9052 15.0782
406 1 -1.1104 3.90505 9.11329 17.8676
407 2 2.2208 2.50917 7.7189 19.2618
408 2 2.2208 2.51345 13.302 19.2628
409 1 -1.1104 3.90496 9.11342 15.0777
410 2 2.2208 2.51131 10.5106 16.4729
411 1 -1.1104 3.90281 6.3217 17.8666
412 1 -1.1104 3.90713 11.9049 17.8676
413 1 -1.1104 3.90292 6.32179 15.0777
414 1 -1.1104 3.90716 11.9051 15.0787
424 1 -1.1104 1.11327 6.32167 20.6561
430 1 -1.1104 6.69239 6.32171 17.8671
423 1 -1.1104 3.90494 9.11315 20.6565
427 1 -1.1104 6.69673 11.905 17.8681
420 1 -1.1104 3.90716 11.9046 20.6575
421 1 -1.1104 1.1155 9.11324 20.657
425 1 -1.1104 6.69665 11.9047 20.657
415 1 -1.1104 6.69457 9.11353 15.0782
452 1 -1.1104 6.69226 6.32161 20.6561
318 2 2.2208 10.8864 18.8848 27.6321
422 1 -1.1104 1.11758 11.9048 20.657
572 1 -1.1104 3.90285 6.3216 20.6565
450 1 -1.1104 6.69452 9.11316 20.657
9262 2 2.2208 13.667 7.71929 19.2618
418 1 -1.1104 6.69233 6.32185 15.0772
428 1 -1.1104 6.6945 9.11335 17.8671
429 1 -1.1104 6.69664 11.9052 15.0782
431 2 2.2208 10.8776 7.71932 16.4724
432 2 2.2208 10.882 13.303 16.4733
433 1 -1.1104 12.2734 9.11384 17.8671
434 1 -1.1104 12.2735 9.11408 15.0782
435 1 -1.1104 12.2713 6.32202 17.8671
436 1 -1.1104 12.2757 11.9057 17.8681
437 2 2.2208 10.8798 10.5108 19.2623
438 1 -1.1104 12.2712 6.3222 15.0772
439 1 -1.1104 12.2756 11.906 15.0782
440 1 -1.1104 9.48405 9.11356 17.8676
441 2 2.2208 8.08817 7.71896 19.2618
442 2 2.2208 8.09255 13.3022 19.2627
443 1 -1.1104 9.48398 9.11376 15.0777
444 2 2.2208 8.09036 10.5108 16.4729
445 1 -1.1104 9.4818 6.32186 17.8666
446 1 -1.1104 9.48619 11.9053 17.8675
447 1 -1.1104 9.48188 6.32201 15.0777
448 1 -1.1104 9.48622 11.9056 15.0787
451 1 -1.1104 9.48394 9.11334 20.6565
453 1 -1.1104 12.2734 9.11354 20.657
449 1 -1.1104 9.48182 6.3217 20.6565
601 1 -1.1104 9.4862 11.9049 20.6575
516 2 2.2208 13.6605 -0.65593 16.471
455 2 2.2208 5.30735 18.8854 16.4742
456 1 -1.1104 1.11969 14.6966 17.8681
457 1 -1.1104 1.12384 20.2796 17.8688
458 1 -1.1104 1.11967 14.6969 15.0791
459 1 -1.1104 1.12377 20.2801 15.0798
460 1 -1.1104 1.12176 17.4882 17.8688
461 2 2.2208 5.30517 16.0935 19.2632
462 2 2.2208 5.30953 21.6762 19.2639
463 1 -1.1104 1.12171 17.4885 15.0791
464 1 -1.1104 3.90931 14.6964 17.8685
465 1 -1.1104 3.91352 20.2792 17.8692
466 2 2.2208 2.51769 18.8849 19.2635
467 1 -1.1104 3.90922 14.6967 15.0787
468 1 -1.1104 3.91354 20.2797 15.0794
469 2 2.2208 2.51555 16.0939 16.4738
470 2 2.2208 2.51976 21.6768 16.4744
471 1 -1.1104 3.91143 17.4879 17.8685
472 1 -1.1104 3.91141 17.4882 15.0796
478 1 -1.1104 1.12388 20.2791 20.6585
476 1 -1.1104 6.70107 17.4876 20.6578
489 1 -1.1104 6.69888 14.6966 17.868
475 1 -1.1104 3.91359 20.2787 20.6582
479 1 -1.1104 1.11974 14.6963 20.6579
473 1 -1.1104 3.90927 14.6961 20.6575
627 1 -1.1104 1.12183 17.4877 20.6579
487 1 -1.1104 6.69888 14.6969 15.0792
488 1 -1.1104 6.70107 17.4881 17.869
474 1 -1.1104 6.70334 20.2795 17.8687
486 1 -1.1104 6.70106 17.4885 15.0791
480 1 -1.1104 6.70323 20.2788 20.6587
481 1 -1.1104 6.69887 14.6962 20.658
9168 2 2.2208 13.6735 16.0938 27.6316
9300 2 2.2208 13.6736 16.0956 16.4737
509 1 -1.1104 12.2801 17.4889 20.6576
485 1 -1.1104 6.70332 20.2801 15.08
490 2 2.2208 10.8865 18.887 16.4741
491 1 -1.1104 12.2779 14.6977 17.8679
492 1 -1.1104 12.2824 20.282 17.8684
493 1 -1.1104 12.2778 14.6981 15.0792
494 1 -1.1104 12.2823 20.2828 15.08
495 1 -1.1104 12.28 17.4897 17.8689
496 2 2.2208 10.8842 16.0944 19.2631
497 2 2.2208 10.8887 21.678 19.2637
498 1 -1.1104 12.2801 17.4903 15.079
499 1 -1.1104 9.48842 14.697 17.8685
500 1 -1.1104 9.49287 20.2806 17.8693
501 2 2.2208 8.09696 18.8854 19.2635
502 1 -1.1104 9.48837 14.6974 15.0786
503 1 -1.1104 9.49298 20.2813 15.0793
504 2 2.2208 8.09474 16.0943 16.4738
505 2 2.2208 8.09927 21.6777 16.4745
506 1 -1.1104 9.49067 17.4888 17.8683
507 1 -1.1104 9.49066 17.4893 15.0797
9319 2 2.2208 13.6758 18.887 19.2633
9324 2 2.2208 13.678 21.6805 16.4742
508 1 -1.1104 9.49291 20.2796 20.658
484 1 -1.1104 9.49059 17.4881 20.6583
625 1 -1.1104 12.2778 14.697 20.6579
510 1 -1.1104 9.48839 14.6966 20.6574
357 1 -1.1104 3.89622 -2.05317 20.6546
356 1 -1.1104 1.10891 0.738462 20.6551
332 2 2.2208 10.8775 7.7189 27.6302
327 2 2.2208 8.0815 -0.655898 27.6287
517 2 2.2208 5.29425 2.13566 22.0503
518 1 -1.1104 1.10671 -2.05312 23.444
519 1 -1.1104 1.11106 3.53005 23.445
520 1 -1.1104 1.10681 -2.05308 26.2339
521 1 -1.1104 1.11114 3.53005 26.235
522 1 -1.1104 1.10899 0.738461 23.445
523 2 2.2208 5.29206 -0.655895 24.8392
524 1 -1.1104 1.10885 0.738499 26.234
525 1 -1.1104 3.8963 -2.05312 23.4445
526 1 -1.1104 3.90063 3.53002 23.4455
527 2 2.2208 2.50475 2.13568 24.8398
528 1 -1.1104 3.89616 -2.05306 26.2335
529 1 -1.1104 3.90049 3.53003 26.2345
530 2 2.2208 2.50261 -0.655921 22.0498
531 2 2.2208 2.50695 4.92726 22.0508
532 1 -1.1104 3.89835 0.738463 23.4445
533 1 -1.1104 3.89845 0.738495 26.2344
534 2 2.2208 5.29639 4.92723 24.8402
550 1 -1.1104 6.68575 -2.05308 26.2339
536 1 -1.1104 6.6878 0.738483 26.234
317 2 2.2208 2.50692 4.92726 27.6297
319 2 2.2208 2.50258 -0.655855 27.6287
322 2 2.2208 5.29421 2.1357 27.6292
549 1 -1.1104 6.68567 -2.05314 23.444
543 1 -1.1104 6.68794 0.73844 23.445
9415 2 2.2208 13.6713 13.3023 24.8416
546 1 -1.1104 12.2668 0.738436 20.6551
548 1 -1.1104 6.69008 3.53003 26.235
365 2 2.2208 13.6604 -0.656026 22.0498
537 1 -1.1104 6.69001 3.53001 23.445
547 1 -1.1104 12.2647 -2.05326 20.6551
551 2 2.2208 10.8732 2.13567 22.0503
552 1 -1.1104 12.2646 -2.05328 23.4441
553 1 -1.1104 12.2689 3.53005 23.445
554 1 -1.1104 12.2646 -2.05325 26.234
555 1 -1.1104 12.269 3.53003 26.235
556 1 -1.1104 12.2668 0.73838 23.445
557 2 2.2208 10.871 -0.655989 24.8393
558 2 2.2208 10.8753 4.92727 24.8403
559 1 -1.1104 12.2667 0.738396 26.234
560 1 -1.1104 9.47524 -2.0532 23.4445
561 1 -1.1104 9.47957 3.53001 23.4455
562 2 2.2208 8.08369 2.13566 24.8398
563 1 -1.1104 9.47509 -2.05316 26.2335
564 1 -1.1104 9.47942 3.53003 26.2345
565 2 2.2208 8.08155 -0.655959 22.0498
566 2 2.2208 8.08591 4.92725 22.0508
567 1 -1.1104 9.47728 0.738416 23.4446
568 1 -1.1104 9.47737 0.738436 26.2345
514 2 2.2208 13.6626 2.13564 24.8398
324 2 2.2208 8.08585 4.92727 27.6297
9171 2 2.2208 13.6647 4.92734 27.6297
328 2 2.2208 10.8731 2.13568 27.6292
330 2 2.2208 2.51122 10.5103 27.6307
575 2 2.2208 5.29861 7.71879 22.0513
576 2 2.2208 5.30298 13.3018 22.0522
577 1 -1.1104 1.11539 9.11315 23.446
578 1 -1.1104 1.11546 9.11311 26.236
579 1 -1.1104 1.11332 6.3216 23.446
580 1 -1.1104 1.11762 11.9046 23.4469
581 2 2.2208 5.30076 10.5102 24.8412
582 1 -1.1104 1.11319 6.3216 26.235
583 1 -1.1104 1.1175 11.9046 26.236
584 1 -1.1104 3.90498 9.11304 23.4465
585 2 2.2208 2.50908 7.71878 24.8408
586 2 2.2208 2.51342 13.3017 24.8417
587 1 -1.1104 3.90485 9.11305 26.2355
588 2 2.2208 2.51129 10.5103 22.0518
589 1 -1.1104 3.90269 6.32155 23.4455
590 1 -1.1104 3.90706 11.9045 23.4465
591 1 -1.1104 3.90278 6.32156 26.2355
592 1 -1.1104 3.90712 11.9045 26.2364
595 1 -1.1104 6.69667 11.9045 23.447
603 1 -1.1104 6.69439 9.11308 23.446
596 1 -1.1104 6.69229 6.32156 23.446
329 2 2.2208 5.29856 7.71878 27.6302
600 1 -1.1104 6.69446 9.11305 26.236
597 1 -1.1104 6.69653 11.9045 26.236
599 1 -1.1104 6.69215 6.32158 26.235
9383 2 2.2208 13.667 7.71898 24.8408
9414 2 2.2208 13.6692 10.5108 22.0517
454 1 -1.1104 12.2712 6.32184 20.6561
333 2 2.2208 10.8819 13.302 27.6312
323 2 2.2208 8.09023 10.5103 27.6307
602 1 -1.1104 12.2756 11.9053 20.6569
604 1 -1.1104 9.48396 9.11317 23.4465
605 1 -1.1104 12.2755 11.9049 26.2359
606 1 -1.1104 12.2711 6.32167 26.235
607 2 2.2208 10.8797 10.5105 24.8412
608 1 -1.1104 12.2756 11.905 23.4469
609 1 -1.1104 12.2712 6.32169 23.446
610 1 -1.1104 12.2734 9.11328 26.236
611 1 -1.1104 12.2733 9.11335 23.446
612 1 -1.1104 9.48613 11.9046 26.2365
613 1 -1.1104 9.48174 6.3216 26.2355
614 1 -1.1104 9.48609 11.9047 23.4464
615 1 -1.1104 9.48167 6.32162 23.4455
616 2 2.2208 8.0903 10.5104 22.0517
617 1 -1.1104 9.48383 9.11315 26.2355
618 2 2.2208 8.09246 13.3017 24.8417
619 2 2.2208 8.08805 7.71879 24.8407
620 2 2.2208 10.8776 7.71895 22.0513
621 2 2.2208 10.882 13.3022 22.0522
626 1 -1.1104 3.91144 17.4875 20.6583
622 1 -1.1104 6.70323 20.2784 23.4477
649 1 -1.1104 6.69878 14.6959 23.4469
569 1 -1.1104 6.7033 20.2782 26.2379
321 2 2.2208 2.52008 21.6754 27.6326
651 1 -1.1104 6.70094 17.4871 26.2369
630 1 -1.1104 6.69883 14.6958 26.237
631 2 2.2208 2.5199 21.6757 22.0534
632 1 -1.1104 3.91141 17.4871 23.4474
633 1 -1.1104 1.12188 17.4874 23.4477
634 1 -1.1104 3.90919 14.6958 26.2365
635 1 -1.1104 3.91147 17.487 26.2374
636 2 2.2208 2.51778 18.8843 24.8426
637 1 -1.1104 3.91362 20.2781 26.2373
638 2 2.2208 5.30735 18.8844 22.0531
639 1 -1.1104 1.1197 14.6961 23.4469
640 1 -1.1104 1.12399 20.2786 23.4477
641 2 2.2208 5.30513 16.093 24.8422
642 2 2.2208 5.30962 21.6753 24.843
643 1 -1.1104 1.11974 14.696 26.2369
644 1 -1.1104 1.12183 17.4873 26.2369
645 1 -1.1104 1.12413 20.2785 26.2377
646 1 -1.1104 3.9093 14.6959 23.4474
647 1 -1.1104 3.91362 20.2783 23.4482
648 2 2.2208 2.51559 16.0932 22.0526
650 1 -1.1104 6.70103 17.4872 23.4479
320 2 2.2208 2.51557 16.093 27.6317
335 2 2.2208 5.30737 18.8842 27.6322
9211 2 2.2208 13.678 21.6778 22.053
336 2 2.2208 8.09465 16.0931 27.6317
629 1 -1.1104 12.2823 20.2792 26.2377
628 1 -1.1104 9.48836 14.6962 23.4474
540 1 -1.1104 9.49055 17.4876 23.4472
594 1 -1.1104 12.2822 20.2806 20.6585
541 2 2.2208 8.09471 16.0934 22.0526
392 1 -1.1104 12.28 17.4881 23.4477
426 1 -1.1104 9.49057 17.4874 26.2374
9465 2 2.2208 13.6736 16.0943 22.0525
367 1 -1.1104 12.2778 14.6966 23.4468
538 2 2.2208 8.09917 21.676 22.0534
513 2 2.2208 10.8887 21.6762 24.8428
542 1 -1.1104 9.49279 20.2789 23.4482
483 2 2.2208 10.8864 18.8854 22.0529
593 1 -1.1104 12.2778 14.6964 26.2369
337 2 2.2208 8.09923 21.6755 27.6326
598 2 2.2208 8.09691 18.8844 24.8426
539 1 -1.1104 12.28 17.4878 26.2368
544 1 -1.1104 12.2823 20.2797 23.4474
570 2 2.2208 10.8841 16.0935 24.8421
9466 2 2.2208 13.6758 18.8854 24.8424
624 1 -1.1104 9.49277 20.2786 26.2372
623 1 -1.1104 9.48824 14.6961 26.2364
9172 2 2.2208 13.6691 10.5106 27.6307
316 2 2.2208 13.6604 -0.655995 27.6288
331 2 2.2208 5.30291 13.3016 27.6312
676 2 2.2208 5.31218 24.4672 5.31773
677 2 2.2208 5.31781 30.0491 5.31863
678 1 -1.1104 1.12867 25.8606 1.13332
679 1 -1.1104 1.12885 25.8612 3.92329
680 1 -1.1104 1.12648 23.0697 1.13333
681 1 -1.1104 1.13146 28.6515 1.1342
682 2 2.2208 5.31479 27.2576 2.52879
683 1 -1.1104 1.12624 23.0701 3.92248
684 1 -1.1104 1.13117 28.6521 3.92327
685 1 -1.1104 3.91852 25.8602 1.13391
686 2 2.2208 2.52251 24.4668 2.52819
687 2 2.2208 2.52813 30.0486 2.5292
688 1 -1.1104 3.91833 25.8606 3.9229
689 2 2.2208 2.52504 27.2583 5.31805
690 1 -1.1104 3.91592 23.0693 1.13295
691 1 -1.1104 3.92089 28.6509 1.13384
692 1 -1.1104 3.91611 23.0697 3.92298
693 1 -1.1104 3.92121 28.6514 3.92392
703 1 -1.1104 6.70797 25.8602 1.13338
705 1 -1.1104 6.70572 23.0693 1.13355
704 1 -1.1104 6.70833 25.8607 3.92361
706 1 -1.1104 6.71072 28.6513 3.92337
848 1 -1.1104 3.91587 23.0702 6.71194
850 1 -1.1104 1.12841 25.8619 6.71236
707 1 -1.1104 6.71108 28.6522 6.71365
729 1 -1.1104 6.70808 25.8614 6.71238
700 1 -1.1104 1.13113 28.6528 6.71315
849 1 -1.1104 3.91849 25.8612 6.71289
697 1 -1.1104 1.12635 23.0707 6.71232
695 1 -1.1104 3.92081 28.6519 6.71274
726 1 -1.1104 6.70587 23.0705 6.71264
696 1 -1.1104 6.70558 23.0697 3.92252
694 1 -1.1104 6.71082 28.651 1.1346
708 2 2.2208 10.8913 24.4688 5.31799
709 2 2.2208 10.8967 30.0519 5.31926
710 1 -1.1104 12.287 25.8616 1.13326
711 1 -1.1104 12.2875 25.8626 3.92389
712 1 -1.1104 12.2848 23.0706 1.13355
713 1 -1.1104 12.2898 28.6525 1.13446
714 2 2.2208 10.8937 27.2589 2.52895
715 1 -1.1104 12.2846 23.0713 3.92262
716 1 -1.1104 12.2897 28.6536 3.92367
717 1 -1.1104 9.49778 25.8608 1.13406
718 2 2.2208 8.10174 24.467 2.52834
719 2 2.2208 8.10716 30.0491 2.52962
720 1 -1.1104 9.49767 25.8614 3.92302
721 2 2.2208 8.10446 27.2589 5.31835
722 1 -1.1104 9.49511 23.0698 1.13292
723 1 -1.1104 9.5001 28.6516 1.13387
724 1 -1.1104 9.49544 23.0704 3.92326
725 1 -1.1104 9.50074 28.6524 3.92441
9545 2 2.2208 13.6805 24.4686 2.52832
878 1 -1.1104 9.49522 23.0713 6.71207
728 1 -1.1104 9.50042 28.6536 6.71306
730 1 -1.1104 12.285 23.0727 6.71296
877 1 -1.1104 12.2871 25.8644 6.71276
9544 2 2.2208 13.6855 30.0512 2.52947
879 1 -1.1104 12.2905 28.6562 6.71444
9549 2 2.2208 13.6831 27.2618 5.3186
727 1 -1.1104 9.49816 25.8627 6.71344
881 2 2.2208 13.6696 46.8021 2.5149
732 2 2.2208 5.326 35.6316 5.31999
733 1 -1.1104 1.13412 31.4421 1.13408
734 1 -1.1104 1.1418 37.0235 1.1346
735 1 -1.1104 1.13437 31.4428 3.92423
736 1 -1.1104 1.1424 37.024 3.92534
737 1 -1.1104 1.13781 34.2331 1.1354
738 2 2.2208 5.32122 32.8397 2.53028
739 2 2.2208 5.33121 38.4243 2.53224
740 1 -1.1104 1.1377 34.2332 3.92374
741 1 -1.1104 3.92407 31.4418 1.13514
742 1 -1.1104 3.93141 37.0242 1.13701
743 2 2.2208 2.53661 35.6306 2.53048
744 1 -1.1104 3.92392 31.4419 3.92373
745 1 -1.1104 3.93173 37.0232 3.92423
746 2 2.2208 2.53177 32.84 5.31891
747 2 2.2208 2.54443 38.4217 5.31938
748 1 -1.1104 3.92708 34.2324 1.13496
749 1 -1.1104 3.92762 34.2326 3.92525
751 1 -1.1104 1.14195 37.0236 6.71299
753 1 -1.1104 3.92393 31.4423 6.71388
763 1 -1.1104 6.71399 31.442 3.92476
757 1 -1.1104 6.72024 37.0241 1.13594
764 1 -1.1104 6.71701 34.2323 3.92439
787 1 -1.1104 6.71368 31.4424 6.71316
765 1 -1.1104 6.71334 31.4416 1.13456
752 1 -1.1104 3.92719 34.2324 6.71342
754 1 -1.1104 1.13362 31.4436 6.7131
760 1 -1.1104 6.72093 37.0217 6.71411
761 1 -1.1104 6.71743 34.2324 6.71487
762 1 -1.1104 6.7169 34.2328 1.13633
758 1 -1.1104 6.72089 37.0232 3.92641
766 2 2.2208 10.9026 35.6356 5.32114
767 1 -1.1104 12.2922 31.4432 1.13425
768 1 -1.1104 12.2977 37.0245 1.13555
769 1 -1.1104 12.2933 31.4445 3.92525
770 1 -1.1104 12.2999 37.0243 3.92579
771 1 -1.1104 12.2955 34.2338 1.13535
772 2 2.2208 10.8991 32.8415 2.53062
773 2 2.2208 10.9028 38.4263 2.53356
774 1 -1.1104 12.2957 34.2347 3.92511
775 1 -1.1104 9.50324 31.4425 1.13535
776 1 -1.1104 9.50929 37.0253 1.13708
777 2 2.2208 8.11366 35.6327 2.53191
778 1 -1.1104 9.50324 31.443 3.9241
779 1 -1.1104 9.50949 37.0245 3.92572
780 2 2.2208 8.11065 32.8413 5.3195
781 2 2.2208 8.118 38.4264 5.32317
782 1 -1.1104 9.50568 34.2334 1.13545
783 1 -1.1104 9.50702 34.2339 3.92579
928 1 -1.1104 12.2926 31.4477 6.71433
9600 2 2.2208 13.6884 32.8455 5.32008
784 1 -1.1104 9.51177 37.0227 6.7169
9601 2 2.2208 13.6938 38.4278 5.31966
9605 2 2.2208 13.6903 35.6332 2.53069
785 1 -1.1104 9.50404 31.4444 6.71491
788 1 -1.1104 12.2972 34.2388 6.71677
789 1 -1.1104 9.50667 34.2339 6.71428
791 2 2.2208 5.34089 41.2174 5.32097