ITEM: TIMESTEP
324
ITEM: NUMBER OF ATOMS
17644
ITEM: BOX BOUNDS pp pp pp
-2.7717828229332220e-01 2.7617178282293317e+01
-3.4472205766305355e+00 3.3152722057663055e+02
-2.7717827830221448e-01 2.7617178278302212e+01
ITEM: ATOMS id type q x y z
3673 2 2.2208 5.30117 2.13313 5.29534
5 1 -1.1104 1.11718 -2.05384 1.10973
65 1 -1.1104 1.11679 3.52659 1.11166
17 1 -1.1104 6.6961 -2.05398 1.10968
77 1 -1.1104 6.69573 3.52638 1.11161
6 1 -1.1104 1.11735 -2.05387 3.89915
66 1 -1.1104 1.11699 3.52652 3.90107
18 1 -1.1104 6.69629 -2.054 3.89912
78 1 -1.1104 6.69593 3.52634 3.90105
7 1 -1.1104 1.11718 0.736378 1.11062
19 1 -1.1104 6.69611 0.736204 1.11058
14 2 2.2208 5.30137 -0.657057 2.50488
74 2 2.2208 5.30099 4.92329 2.50684
8 1 -1.1104 1.11696 0.736338 3.90016
20 1 -1.1104 6.6959 0.736191 3.9001
9 1 -1.1104 3.90684 -2.05393 1.10965
69 1 -1.1104 3.90645 3.52644 1.11158
63 2 2.2208 2.51171 2.13322 2.50587
10 1 -1.1104 3.90663 -2.05394 3.89918
70 1 -1.1104 3.90624 3.5264 3.90113
3604 2 2.2208 2.51189 -0.657 5.29438
3664 2 2.2208 2.5115 4.92337 5.29636
11 1 -1.1104 3.90644 0.736273 1.11066
12 1 -1.1104 3.90664 0.736243 3.90009
3605 1 -1.1104 1.11714 -2.05388 6.68868
3665 1 -1.1104 1.11674 3.52657 6.69064
3617 1 -1.1104 6.69609 -2.05399 6.68863
3677 1 -1.1104 6.6957 3.52637 6.69058
3607 1 -1.1104 1.11716 0.73635 6.68957
3619 1 -1.1104 6.6961 0.736207 6.68955
3609 1 -1.1104 3.90681 -2.05395 6.6886
3669 1 -1.1104 3.90645 3.5264 6.69056
3611 1 -1.1104 3.90641 0.736243 6.68962
3685 2 2.2208 10.8801 2.1332 5.29528
29 1 -1.1104 12.275 -2.05397 1.10964
89 1 -1.1104 12.2747 3.52654 1.11153
30 1 -1.1104 12.2752 -2.05395 3.8991
90 1 -1.1104 12.2749 3.52651 3.90102
31 1 -1.1104 12.275 0.736294 1.11053
26 2 2.2208 10.8803 -0.657046 2.50483
86 2 2.2208 10.8799 4.92337 2.50679
32 1 -1.1104 12.2748 0.736302 3.90003
21 1 -1.1104 9.48575 -2.054 1.10962
81 1 -1.1104 9.48541 3.5264 1.11154
75 2 2.2208 8.09065 2.13313 2.50582
22 1 -1.1104 9.48556 -2.05399 3.89914
82 1 -1.1104 9.48518 3.52638 3.90105
3616 2 2.2208 8.09082 -0.657065 5.29434
3676 2 2.2208 8.09047 4.92328 5.29632
23 1 -1.1104 9.48537 0.736219 1.11058
24 1 -1.1104 9.48557 0.736207 3.90004
3629 1 -1.1104 12.275 -2.05394 6.68861
3689 1 -1.1104 12.2746 3.52658 6.69053
3631 1 -1.1104 12.275 0.736334 6.6895
3621 1 -1.1104 9.48574 -2.05399 6.68859
3681 1 -1.1104 9.48542 3.52642 6.69053
3623 1 -1.1104 9.48535 0.73625 6.68955
3688 2 2.2208 13.6694 4.92357 5.2963
3661 2 2.2208 -0.277761 2.13333 5.29536
7468 2 2.2208 13.6691 21.6671 10.8819
3733 2 2.2208 5.30078 7.71335 5.29735
3793 2 2.2208 5.30045 13.2932 5.29934
125 1 -1.1104 1.11638 9.1069 1.11363
137 1 -1.1104 6.69539 9.10652 1.11356
126 1 -1.1104 1.11656 9.10682 3.90305
138 1 -1.1104 6.69556 9.10641 3.90306
67 1 -1.1104 1.11677 6.31676 1.11256
127 1 -1.1104 1.11633 11.897 1.11448
3727 1 -1.1104 1.11633 11.897 6.69355
79 1 -1.1104 6.69574 6.31649 1.11255
139 1 -1.1104 6.69541 11.8964 1.11448
3739 1 -1.1104 6.69544 11.8964 6.69362
134 2 2.2208 5.30062 10.5034 2.50881
68 1 -1.1104 1.11656 6.3167 3.90215
128 1 -1.1104 1.11613 11.8969 3.90414
80 1 -1.1104 6.69552 6.31643 3.9021
140 1 -1.1104 6.69521 11.8963 3.90408
129 1 -1.1104 3.90604 9.10663 1.11353
123 2 2.2208 2.51131 7.71352 2.50785
183 2 2.2208 2.5109 13.2936 2.50979
130 1 -1.1104 3.90582 9.10654 3.90312
3724 2 2.2208 2.51109 10.5036 5.29835
71 1 -1.1104 3.90605 6.31658 1.11263
131 1 -1.1104 3.90567 11.8966 1.11457
3731 1 -1.1104 3.90559 11.8966 6.69366
72 1 -1.1104 3.90623 6.3165 3.90207
132 1 -1.1104 3.90585 11.8965 3.90402
3725 1 -1.1104 1.11629 9.10689 6.69268
3737 1 -1.1104 6.69532 9.10649 6.69263
3667 1 -1.1104 1.11676 6.31674 6.69157
3679 1 -1.1104 6.69575 6.31647 6.69157
3729 1 -1.1104 3.90603 9.1066 6.69257
3671 1 -1.1104 3.906 6.31654 6.69165
3745 2 2.2208 10.8798 7.71351 5.29734
3805 2 2.2208 10.8796 13.2935 5.2994
149 1 -1.1104 12.2744 9.10684 1.11352
150 1 -1.1104 12.2746 9.10677 3.90311
91 1 -1.1104 12.2747 6.31671 1.11255
151 1 -1.1104 12.2745 11.8969 1.11455
3751 1 -1.1104 12.2746 11.897 6.69375
146 2 2.2208 10.8797 10.5035 2.50881
92 1 -1.1104 12.2745 6.31667 3.90205
152 1 -1.1104 12.2743 11.8968 3.90408
141 1 -1.1104 9.4851 9.1066 1.11355
135 2 2.2208 8.09031 7.71335 2.50782
195 2 2.2208 8.09004 13.2932 2.50978
142 1 -1.1104 9.48488 9.10649 3.90308
3736 2 2.2208 8.09016 10.5033 5.29836
83 1 -1.1104 9.48505 6.31654 1.11256
143 1 -1.1104 9.48482 11.8965 1.11449
3743 1 -1.1104 9.48474 11.8966 6.69364
84 1 -1.1104 9.48524 6.31647 3.90206
144 1 -1.1104 9.485 11.8964 3.9041
147 2 2.2208 13.6693 7.71373 2.50781
3749 1 -1.1104 12.2743 9.10693 6.69261
3691 1 -1.1104 12.2747 6.31678 6.69158
3741 1 -1.1104 9.48512 9.10662 6.69263
3683 1 -1.1104 9.485 6.31656 6.69158
207 2 2.2208 13.6691 13.294 2.50983
3748 2 2.2208 13.6691 10.5039 5.29838
3853 2 2.2208 5.30005 18.8725 5.30123
185 1 -1.1104 1.11594 14.6871 1.11555
3785 1 -1.1104 1.11584 14.687 6.69469
245 1 -1.1104 1.11537 20.267 1.11743
197 1 -1.1104 6.69508 14.6862 1.11547
3797 1 -1.1104 6.69503 14.6861 6.69467
186 1 -1.1104 1.11608 14.6869 3.90494
246 1 -1.1104 1.11544 20.2666 3.90672
198 1 -1.1104 6.69526 14.686 3.90503
187 1 -1.1104 1.11579 17.4771 1.11629
3787 1 -1.1104 1.11582 17.4768 6.69545
3799 1 -1.1104 6.69514 17.4757 6.69564
194 2 2.2208 5.30026 16.083 2.51073
254 2 2.2208 5.29977 21.6621 2.51251
188 1 -1.1104 1.11561 17.4768 3.90608
200 1 -1.1104 6.69485 17.4755 3.90602
189 1 -1.1104 3.90561 14.6865 1.11539
3789 1 -1.1104 3.90568 14.6864 6.69456
249 1 -1.1104 3.90501 20.2659 1.11713
3849 1 -1.1104 3.90512 20.2654 6.69641
243 2 2.2208 2.51039 18.8733 2.51165
190 1 -1.1104 3.90544 14.6863 3.9051
250 1 -1.1104 3.90489 20.2654 3.90696
3784 2 2.2208 2.51066 16.0834 5.30028
3844 2 2.2208 2.51009 21.6627 5.30205
191 1 -1.1104 3.90522 17.4763 1.11646
3791 1 -1.1104 3.90516 17.476 6.69567
192 1 -1.1104 3.90536 17.476 3.90587
257 1 -1.1104 6.69465 20.2653 1.11729
258 1 -1.1104 6.69477 20.2648 3.90684
199 1 -1.1104 6.69499 17.4759 1.11633
267 2 2.2208 13.6689 18.8738 2.51185
3865 2 2.2208 10.8794 18.873 5.30145
209 1 -1.1104 12.2743 14.6868 1.11544
3809 1 -1.1104 12.2742 14.687 6.69473
269 1 -1.1104 12.2741 20.2661 1.11726
210 1 -1.1104 12.2745 14.6866 3.9052
270 1 -1.1104 12.2743 20.2658 3.90728
211 1 -1.1104 12.2743 17.4766 1.1165
3811 1 -1.1104 12.2745 17.4768 6.69598
206 2 2.2208 10.8795 16.0833 2.51079
266 2 2.2208 10.8792 21.6623 2.51272
212 1 -1.1104 12.2741 17.4763 3.90608
201 1 -1.1104 9.48485 14.6863 1.11548
3801 1 -1.1104 9.48495 14.6864 6.69475
261 1 -1.1104 9.48449 20.2653 1.11732
255 2 2.2208 8.08971 18.8725 2.51168
202 1 -1.1104 9.48467 14.6861 3.90506
262 1 -1.1104 9.4844 20.2649 3.90697
3796 2 2.2208 8.08991 16.0829 5.30036
3856 2 2.2208 8.08961 21.6616 5.30221
203 1 -1.1104 9.48456 17.4759 1.11635
3803 1 -1.1104 9.48453 17.4759 6.69571
204 1 -1.1104 9.48474 17.4757 3.90609
3808 2 2.2208 13.669 16.0841 5.30051
3868 2 2.2208 13.6689 21.6638 5.30265
7273 2 2.2208 5.30117 2.13324 10.8743
7205 1 -1.1104 1.11715 -2.05382 12.2676
7265 1 -1.1104 1.11672 3.52679 12.2695
7217 1 -1.1104 6.6961 -2.05398 12.2675
7277 1 -1.1104 6.6957 3.52661 12.2695
3606 1 -1.1104 1.11734 -2.05386 9.47806
3666 1 -1.1104 1.11696 3.52666 9.48004
3618 1 -1.1104 6.69628 -2.05399 9.47805
3678 1 -1.1104 6.69594 3.52647 9.48002
7207 1 -1.1104 1.11714 0.736478 12.2685
7219 1 -1.1104 6.69612 0.736319 12.2684
3614 2 2.2208 5.30135 -0.657052 8.08383
3674 2 2.2208 5.30097 4.92335 8.08582
3608 1 -1.1104 1.11692 0.736405 9.47909
3620 1 -1.1104 6.69588 0.736246 9.47905
7209 1 -1.1104 3.90683 -2.05391 12.2675
7269 1 -1.1104 3.90645 3.52666 12.2695
3663 2 2.2208 2.51169 2.13324 8.08483
3610 1 -1.1104 3.90661 -2.05396 9.47811
3670 1 -1.1104 3.90621 3.5265 9.48009
7204 2 2.2208 2.51187 -0.656948 10.8733
7264 2 2.2208 2.51148 4.9236 10.8753
7211 1 -1.1104 3.9064 0.736374 12.2685
3612 1 -1.1104 3.90663 0.736274 9.47902
3804 1 -1.1104 9.48503 17.4768 9.48546
7408 2 2.2208 13.669 16.0857 10.8796
7214 2 2.2208 5.30136 -0.656975 13.6627
7263 2 2.2208 2.51168 2.1334 13.6637
7274 2 2.2208 5.30098 4.92365 13.6647
7202 2 2.2208 -0.277583 -0.656808 13.6627
3602 2 2.2208 -0.277584 -0.656886 8.08386
7285 2 2.2208 10.8801 2.13337 10.8742
7229 1 -1.1104 12.275 -2.0539 12.2675
7289 1 -1.1104 12.2746 3.52689 12.2694
3630 1 -1.1104 12.2752 -2.05392 9.47803
3690 1 -1.1104 12.2749 3.52672 9.48001
7231 1 -1.1104 12.275 0.736493 12.2684
3626 2 2.2208 10.8803 -0.656994 8.08379
3686 2 2.2208 10.8799 4.92351 8.08578
3632 1 -1.1104 12.2748 0.736412 9.47899
7221 1 -1.1104 9.48575 -2.05397 12.2675
7281 1 -1.1104 9.48544 3.52671 12.2694
3675 2 2.2208 8.09064 2.13318 8.08479
3622 1 -1.1104 9.48555 -2.05399 9.47808
3682 1 -1.1104 9.48518 3.52656 9.48002
7216 2 2.2208 8.09083 -0.657018 10.8733
7276 2 2.2208 8.09047 4.92353 10.8753
7223 1 -1.1104 9.48536 0.736384 12.2685
3624 1 -1.1104 9.48558 0.736295 9.479
7288 2 2.2208 13.6694 4.92391 10.8752
2 2 2.2208 -0.277556 -0.656898 2.50492
7275 2 2.2208 8.09066 2.13336 13.6637
7226 2 2.2208 10.8803 -0.656916 13.6626
7286 2 2.2208 10.88 4.92386 13.6647
7333 2 2.2208 5.30078 7.7137 10.8763
7393 2 2.2208 5.30049 13.2939 10.8784
7325 1 -1.1104 1.11627 9.1074 12.2716
7337 1 -1.1104 6.69533 9.10709 12.2715
3726 1 -1.1104 1.11653 9.10712 9.48205
3738 1 -1.1104 6.69559 9.10676 9.4821
7267 1 -1.1104 1.11676 6.31711 12.2705
7327 1 -1.1104 1.11633 11.8977 12.2725
7279 1 -1.1104 6.69578 6.31686 12.2705
7339 1 -1.1104 6.6955 11.8973 12.2726
3734 2 2.2208 5.3006 10.5035 8.08787
3668 1 -1.1104 1.11649 6.31691 9.48114
3728 1 -1.1104 1.11604 11.8973 9.4832
3680 1 -1.1104 6.6955 6.31664 9.48109
3740 1 -1.1104 6.69516 11.8968 9.48316
7329 1 -1.1104 3.90607 9.10715 12.2715
3723 2 2.2208 2.51127 7.71363 8.08685
3783 2 2.2208 2.51089 13.2938 8.08887
3730 1 -1.1104 3.90577 9.10684 9.48214
7324 2 2.2208 2.51108 10.504 10.8773
7271 1 -1.1104 3.906 6.31692 12.2705
7331 1 -1.1104 3.90559 11.8973 12.2726
3672 1 -1.1104 3.90625 6.3167 9.48105
3732 1 -1.1104 3.90588 11.8969 9.4831
7323 2 2.2208 2.51129 7.71406 13.6657
7334 2 2.2208 5.30063 10.5042 13.6667
7383 2 2.2208 2.51091 13.2946 13.6678
3744 1 -1.1104 9.48505 11.897 9.48322
3684 1 -1.1104 9.48527 6.31678 9.48107
7343 1 -1.1104 9.48474 11.8976 12.2726
7283 1 -1.1104 9.48501 6.31703 12.2705
7336 2 2.2208 8.09016 10.5039 10.8773
3742 1 -1.1104 9.48484 9.10693 9.48211
3795 2 2.2208 8.09004 13.2935 8.08892
3735 2 2.2208 8.0903 7.71351 8.08684
7345 2 2.2208 10.8798 7.714 10.8763
7405 2 2.2208 10.8796 13.2946 10.8784
7349 1 -1.1104 12.2743 9.10774 12.2715
3750 1 -1.1104 12.2746 9.10732 9.48216
7291 1 -1.1104 12.2747 6.3173 12.2705
7351 1 -1.1104 12.2746 11.8982 12.2727
3746 2 2.2208 10.8797 10.5038 8.0879
3692 1 -1.1104 12.2745 6.31702 9.48105
3752 1 -1.1104 12.2742 11.8976 9.48317
7341 1 -1.1104 9.48515 9.10733 12.2716
7348 2 2.2208 13.6691 10.5047 10.8774
3807 2 2.2208 13.6691 13.2945 8.089
3747 2 2.2208 13.6692 7.71399 8.08684
7335 2 2.2208 8.09032 7.71402 13.6657
7346 2 2.2208 10.8797 10.5047 13.6667
7395 2 2.2208 8.09011 13.2946 13.6678
7347 2 2.2208 13.6692 7.71462 13.6657
7407 2 2.2208 13.6691 13.2959 13.6678
7399 1 -1.1104 6.69541 17.4773 12.2747
3857 1 -1.1104 6.69464 20.2648 6.69663
7387 1 -1.1104 1.11589 17.478 12.2745
7384 2 2.2208 2.5107 16.0842 10.8793
7444 2 2.2208 2.51025 21.6638 10.8812
7391 1 -1.1104 3.90524 17.4773 12.2747
7449 1 -1.1104 3.90545 20.2671 12.2756
7389 1 -1.1104 3.90577 14.6874 12.2736
3858 1 -1.1104 6.69518 20.2657 9.4863
3800 1 -1.1104 6.6949 17.4763 9.48526
3798 1 -1.1104 6.69538 14.6867 9.48421
3846 1 -1.1104 1.11554 20.2671 9.48596
3788 1 -1.1104 1.11553 17.4773 9.48526
3854 2 2.2208 5.29994 21.6621 8.09169
3786 1 -1.1104 1.11613 14.6873 9.48406
3794 2 2.2208 5.30031 16.0833 8.08988
7457 1 -1.1104 6.69493 20.267 12.2757
7397 1 -1.1104 6.6951 14.6874 12.2736
7445 1 -1.1104 1.11522 20.268 12.2758
7385 1 -1.1104 1.1158 14.6879 12.2737
7453 2 2.2208 5.30024 18.8736 10.8804
3850 1 -1.1104 3.90492 20.266 9.48625
3845 1 -1.1104 1.11523 20.2666 6.69667
3843 2 2.2208 2.51042 18.8734 8.09079
3792 1 -1.1104 3.90553 17.4765 9.48511
3790 1 -1.1104 3.9054 14.6868 9.48421
7406 2 2.2208 10.8796 16.0857 13.6688
7394 2 2.2208 5.30042 16.0846 13.6688
7465 2 2.2208 10.8796 18.875 10.8806
7409 1 -1.1104 12.2742 14.6887 12.2737
7469 1 -1.1104 12.2743 20.2701 12.2759
3810 1 -1.1104 12.2746 14.6878 9.48442
3870 1 -1.1104 12.2747 20.268 9.48687
3867 2 2.2208 13.669 18.8749 8.09121
7411 1 -1.1104 12.2747 17.4794 12.275
3806 2 2.2208 10.8795 16.0839 8.09003
3866 2 2.2208 10.8795 21.6633 8.09215
3812 1 -1.1104 12.2741 17.4779 9.48538
7401 1 -1.1104 9.48508 14.6879 12.2738
7461 1 -1.1104 9.48526 20.2682 12.2761
3855 2 2.2208 8.08986 18.8729 8.09095
3802 1 -1.1104 9.48465 14.687 9.48423
3869 1 -1.1104 12.2741 20.2663 6.69686
3861 1 -1.1104 9.48479 20.2652 6.69687
3862 1 -1.1104 9.48455 20.2663 9.48637
7396 2 2.2208 8.09003 16.0841 10.8794
7456 2 2.2208 8.09003 21.6636 10.8815
7403 1 -1.1104 9.4847 17.4781 12.2747
268 2 2.2208 13.6688 21.6641 -0.276893
256 2 2.2208 8.08954 21.6625 -0.276985
265 2 2.2208 10.8794 18.8734 -0.277884
253 2 2.2208 5.30004 18.8731 -0.27789
244 2 2.2208 2.51015 21.6637 -0.276944
10873 2 2.2208 5.30118 2.13339 16.4531
10805 1 -1.1104 1.11715 -2.0538 17.8464
10865 1 -1.1104 1.11676 3.52694 17.8483
10817 1 -1.1104 6.69611 -2.05394 17.8463
10877 1 -1.1104 6.69573 3.52678 17.8482
7206 1 -1.1104 1.11737 -2.05382 15.0569
10806 1 -1.1104 1.11735 -2.0538 20.6357
7266 1 -1.1104 1.11696 3.52689 15.0589
10866 1 -1.1104 1.11698 3.52691 20.6376
7218 1 -1.1104 6.69632 -2.05397 15.0569
10818 1 -1.1104 6.69629 -2.05396 20.6357
7278 1 -1.1104 6.69594 3.52673 15.0588
10878 1 -1.1104 6.69594 3.52671 20.6376
10807 1 -1.1104 1.11715 0.736567 17.8473
10819 1 -1.1104 6.69612 0.736417 17.8472
10814 2 2.2208 5.30137 -0.656942 19.2415
10874 2 2.2208 5.30101 4.92373 19.2434
7208 1 -1.1104 1.11693 0.736519 15.0579
10808 1 -1.1104 1.11697 0.736553 20.6367
7220 1 -1.1104 6.6959 0.736381 15.0579
10820 1 -1.1104 6.69591 0.736395 20.6366
10809 1 -1.1104 3.90684 -2.05389 17.8463
10869 1 -1.1104 3.90646 3.52679 17.8482
10863 2 2.2208 2.51171 2.13348 19.2425
7210 1 -1.1104 3.90664 -2.0539 15.057
10810 1 -1.1104 3.90662 -2.05388 20.6357
7270 1 -1.1104 3.90622 3.52674 15.0589
10870 1 -1.1104 3.90626 3.52676 20.6377
10804 2 2.2208 2.51189 -0.65688 16.4521
10864 2 2.2208 2.51151 4.92381 16.4541
10811 1 -1.1104 3.90642 0.736449 17.8473
7212 1 -1.1104 3.90663 0.736412 15.0579
10812 1 -1.1104 3.90664 0.73644 20.6366
14656 2 2.2208 8.08981 21.6646 22.0384
14596 2 2.2208 8.08999 16.0846 22.0366
10885 2 2.2208 10.8801 2.13352 16.453
10829 1 -1.1104 12.275 -2.05387 17.8463
10889 1 -1.1104 12.2747 3.52704 17.8482
7230 1 -1.1104 12.2752 -2.05387 15.0569
10830 1 -1.1104 12.2752 -2.05389 20.6357
7290 1 -1.1104 12.2749 3.52703 15.0588
10890 1 -1.1104 12.2749 3.52696 20.6375
10831 1 -1.1104 12.275 0.736576 17.8472
10826 2 2.2208 10.8803 -0.656893 19.2414
10886 2 2.2208 10.88 4.92393 19.2434
7232 1 -1.1104 12.2748 0.736577 15.0578
10832 1 -1.1104 12.2748 0.736538 20.6366
10821 1 -1.1104 9.48576 -2.05394 17.8463
10881 1 -1.1104 9.48543 3.52688 17.8482
10875 2 2.2208 8.09066 2.13343 19.2424
7222 1 -1.1104 9.48557 -2.05395 15.0569
10822 1 -1.1104 9.48556 -2.05393 20.6357
7282 1 -1.1104 9.4852 3.52683 15.0588
10882 1 -1.1104 9.48524 3.5268 20.6376
10816 2 2.2208 8.09084 -0.656952 16.4521
10876 2 2.2208 8.09049 4.92378 16.454
10823 1 -1.1104 9.48537 0.73647 17.8472
7224 1 -1.1104 9.48559 0.736434 15.0578
10824 1 -1.1104 9.48558 0.736439 20.6366
196 2 2.2208 8.08991 16.0833 27.6155
10888 2 2.2208 13.6694 4.92417 16.454
11068 2 2.2208 13.6692 21.6699 16.4599
14461 2 2.2208 -0.27775 2.13358 22.0319
10933 2 2.2208 5.30082 7.71408 16.4551
10993 2 2.2208 5.30053 13.2947 16.4571
10925 1 -1.1104 1.11633 9.10773 17.8503
10937 1 -1.1104 6.69541 9.10747 17.8502
7326 1 -1.1104 1.11654 9.10766 15.0609
10926 1 -1.1104 1.11656 9.10764 20.6396
7338 1 -1.1104 6.69563 9.10739 15.0609
10938 1 -1.1104 6.69561 9.10732 20.6395
10867 1 -1.1104 1.11678 6.31733 17.8492
10927 1 -1.1104 1.11634 11.8981 17.8512
10879 1 -1.1104 6.69578 6.31712 17.8492
10939 1 -1.1104 6.6955 11.8978 17.8512
10934 2 2.2208 5.30068 10.5044 19.2454
7268 1 -1.1104 1.11653 6.31727 15.0599
10868 1 -1.1104 1.1166 6.31726 20.6387
7328 1 -1.1104 1.11608 11.898 15.062
10928 1 -1.1104 1.11619 11.898 20.6407
7280 1 -1.1104 6.69554 6.31707 15.0599
10880 1 -1.1104 6.6956 6.31703 20.6386
7340 1 -1.1104 6.69524 11.8977 15.0619
10940 1 -1.1104 6.69531 11.8976 20.6405
10929 1 -1.1104 3.90607 9.10749 17.8502
10923 2 2.2208 2.51133 7.71418 19.2444
10983 2 2.2208 2.51094 13.2949 19.2464
7330 1 -1.1104 3.90582 9.10739 15.0609
10930 1 -1.1104 3.9059 9.10739 20.6396
10924 2 2.2208 2.51111 10.5045 16.4561
10871 1 -1.1104 3.90606 6.31714 17.8493
10931 1 -1.1104 3.90569 11.8978 17.8513
7272 1 -1.1104 3.90626 6.31707 15.0599
10872 1 -1.1104 3.90628 6.31708 20.6386
7332 1 -1.1104 3.90591 11.8977 15.0619
10932 1 -1.1104 3.90589 11.8977 20.6405
10945 2 2.2208 10.8798 7.71442 16.455
11005 2 2.2208 10.8797 13.2955 16.4571
10949 1 -1.1104 12.2744 9.10809 17.8501
7350 1 -1.1104 12.2746 9.10807 15.0609
10950 1 -1.1104 12.2746 9.10784 20.6395
10891 1 -1.1104 12.2747 6.31754 17.8492
10951 1 -1.1104 12.2745 11.8987 17.8512
10946 2 2.2208 10.8797 10.5048 19.2454
7292 1 -1.1104 12.2745 6.31753 15.0598
10892 1 -1.1104 12.2746 6.3174 20.6385
7352 1 -1.1104 12.2743 11.8987 15.0619
10952 1 -1.1104 12.2744 11.8983 20.6404
10941 1 -1.1104 9.48516 9.1077 17.8502
10935 2 2.2208 8.09036 7.71412 19.2444
10995 2 2.2208 8.09012 13.2948 19.2464
7342 1 -1.1104 9.4849 9.10764 15.0609
10942 1 -1.1104 9.48497 9.10749 20.6395
10936 2 2.2208 8.09021 10.5045 16.4561
10883 1 -1.1104 9.48507 6.31729 17.8492
10943 1 -1.1104 9.48486 11.8981 17.8512
7284 1 -1.1104 9.48528 6.31722 15.0599
10884 1 -1.1104 9.48527 6.31714 20.6386
7344 1 -1.1104 9.48508 11.8981 15.062
10944 1 -1.1104 9.48501 11.8978 20.6405
10948 2 2.2208 13.6691 10.5054 16.456
10947 2 2.2208 13.6693 7.71465 19.2444
11007 2 2.2208 13.6691 13.2959 19.2463
11053 2 2.2208 5.30037 18.8752 16.4591
10985 1 -1.1104 1.11591 14.6885 17.8523
11045 1 -1.1104 1.11544 20.2694 17.8543
10997 1 -1.1104 6.6952 14.6881 17.8522
11057 1 -1.1104 6.69515 20.2687 17.8541
7386 1 -1.1104 1.11613 14.6884 15.0629
10986 1 -1.1104 1.1161 14.6884 20.6415
7446 1 -1.1104 1.11566 20.269 15.0648
11046 1 -1.1104 1.11558 20.2691 20.6433
7398 1 -1.1104 6.69545 14.688 15.063
10998 1 -1.1104 6.69532 14.6878 20.6415
7458 1 -1.1104 6.69547 20.2684 15.0651
11058 1 -1.1104 6.69506 20.268 20.6433
10987 1 -1.1104 1.11586 17.479 17.8531
10999 1 -1.1104 6.69532 17.4784 17.8532
10994 2 2.2208 5.3004 16.0849 19.2473
11054 2 2.2208 5.30025 21.6652 19.2492
7388 1 -1.1104 1.11558 17.4787 15.0641
10988 1 -1.1104 1.11571 17.4787 20.6426
7400 1 -1.1104 6.6951 17.4782 15.064
11000 1 -1.1104 6.69509 17.478 20.6424
10989 1 -1.1104 3.90573 14.6881 17.8522
11049 1 -1.1104 3.90545 20.2686 17.8541
11043 2 2.2208 2.51056 18.8754 19.2483
7390 1 -1.1104 3.90549 14.6879 15.063
10990 1 -1.1104 3.90555 14.6879 20.6416
7450 1 -1.1104 3.90518 20.2682 15.065
11050 1 -1.1104 3.90519 20.2683 20.6434
10984 2 2.2208 2.51074 16.0852 16.4581
11044 2 2.2208 2.51046 21.6656 16.46
10991 1 -1.1104 3.90537 17.4784 17.8532
7392 1 -1.1104 3.90564 17.4781 15.0639
10992 1 -1.1104 3.90547 17.4781 20.6424
14402 2 2.2208 -0.277551 -0.656812 24.8203
61 2 2.2208 -0.277744 2.13339 27.6108
11065 2 2.2208 10.8797 18.8769 16.459
11009 1 -1.1104 12.2743 14.6895 17.8521
11069 1 -1.1104 12.2745 20.2717 17.8538
7410 1 -1.1104 12.2746 14.6895 15.0631
11010 1 -1.1104 12.2744 14.6889 20.6415
7470 1 -1.1104 12.2748 20.2719 15.0653
11070 1 -1.1104 12.2743 20.27 20.6432
11011 1 -1.1104 12.2745 17.4804 17.8532
11006 2 2.2208 10.8796 16.0858 19.2473
11066 2 2.2208 10.8797 21.6671 19.249
7412 1 -1.1104 12.2743 17.4805 15.0639
11012 1 -1.1104 12.2744 17.4795 20.6421
11001 1 -1.1104 9.485 14.6886 17.8522
11061 1 -1.1104 9.48507 20.2698 17.8542
11055 2 2.2208 8.09003 18.8754 19.2483
7402 1 -1.1104 9.48477 14.6885 15.0629
11002 1 -1.1104 9.48482 14.6882 20.6414
7462 1 -1.1104 9.48493 20.2696 15.0649
11062 1 -1.1104 9.48483 20.2688 20.6431
10996 2 2.2208 8.0901 16.0853 16.4581
11056 2 2.2208 8.09027 21.666 16.46
11003 1 -1.1104 9.48485 17.4792 17.853
7404 1 -1.1104 9.48512 17.4791 15.0641
11004 1 -1.1104 9.48483 17.4784 20.6424
11008 2 2.2208 13.669 16.0871 16.4581
11067 2 2.2208 13.669 18.8777 19.2481
14602 1 -1.1104 9.48473 14.6868 26.2202
14662 1 -1.1104 9.48449 20.2662 26.222
14473 2 2.2208 5.30119 2.13335 22.0318
14405 1 -1.1104 1.11716 -2.05379 23.4252
14465 1 -1.1104 1.11679 3.5268 23.4271
14417 1 -1.1104 6.69609 -2.05393 23.4251
14477 1 -1.1104 6.69575 3.5266 23.427
14406 1 -1.1104 1.11736 -2.05381 26.2146
14466 1 -1.1104 1.11697 3.52667 26.2165
14418 1 -1.1104 6.69629 -2.05395 26.2145
14478 1 -1.1104 6.69593 3.52648 26.2165
14407 1 -1.1104 1.11717 0.736511 23.4261
14419 1 -1.1104 6.69611 0.736346 23.426
14414 2 2.2208 5.30137 -0.656967 24.8203
14474 2 2.2208 5.30101 4.9235 24.8223
14408 1 -1.1104 1.11698 0.736432 26.2156
14420 1 -1.1104 6.69592 0.736287 26.2155
14409 1 -1.1104 3.90682 -2.05387 23.4251
14469 1 -1.1104 3.90645 3.52666 23.427
14463 2 2.2208 2.51171 2.13335 24.8213
14410 1 -1.1104 3.90663 -2.05388 26.2146
14470 1 -1.1104 3.90626 3.52655 26.2165
14404 2 2.2208 2.51189 -0.656875 22.0309
14464 2 2.2208 2.51154 4.92373 22.0328
14411 1 -1.1104 3.90644 0.736411 23.4261
14412 1 -1.1104 3.90664 0.73634 26.2155
14608 2 2.2208 13.669 16.0859 22.0365
14667 2 2.2208 13.6689 18.8752 24.8269
64 2 2.2208 2.51152 4.92347 27.6117
4 2 2.2208 2.51191 -0.656953 27.6098
73 2 2.2208 5.30119 2.13319 27.6107
14485 2 2.2208 10.8801 2.13344 22.0318
14429 1 -1.1104 12.275 -2.0539 23.4251
14489 1 -1.1104 12.2747 3.5268 23.427
14430 1 -1.1104 12.2752 -2.05395 26.2145
14490 1 -1.1104 12.2749 3.52663 26.2164
14431 1 -1.1104 12.275 0.736441 23.426
14426 2 2.2208 10.8803 -0.656982 24.8203
14486 2 2.2208 10.88 4.92359 24.8222
14432 1 -1.1104 12.2748 0.736345 26.2154
14421 1 -1.1104 9.48575 -2.05394 23.4251
14481 1 -1.1104 9.48543 3.52665 23.427
14475 2 2.2208 8.09068 2.13326 24.8212
14422 1 -1.1104 9.48555 -2.05398 26.2145
14482 1 -1.1104 9.48523 3.52651 26.2164
14416 2 2.2208 8.09083 -0.656961 22.0309
14476 2 2.2208 8.09051 4.92365 22.0328
14423 1 -1.1104 9.48539 0.736369 23.426
14424 1 -1.1104 9.48557 0.73627 26.2154
14668 2 2.2208 13.669 21.667 22.0382
10802 2 2.2208 -0.277571 -0.65677 19.2415
10861 2 2.2208 -0.277766 2.13361 16.4531
88 2 2.2208 13.6694 4.92363 27.6116
76 2 2.2208 8.09049 4.92336 27.6117
16 2 2.2208 8.09083 -0.657051 27.6097
85 2 2.2208 10.8801 2.13322 27.6107
14488 2 2.2208 13.6694 4.92396 22.0327
14655 2 2.2208 8.08978 18.8738 24.827
14533 2 2.2208 5.30085 7.71391 22.0338
14593 2 2.2208 5.30052 13.2944 22.0357
14525 1 -1.1104 1.11642 9.10739 23.429
14537 1 -1.1104 6.69544 9.10704 23.429
14526 1 -1.1104 1.11658 9.10713 26.2184
14538 1 -1.1104 6.69559 9.10675 26.2184
14467 1 -1.1104 1.11678 6.31709 23.428
14527 1 -1.1104 1.11636 11.8977 23.4299
14479 1 -1.1104 6.69577 6.31683 23.428
14539 1 -1.1104 6.69543 11.8972 23.4299
14534 2 2.2208 5.30067 10.5038 24.8242
14468 1 -1.1104 1.1166 6.31691 26.2175
14528 1 -1.1104 1.11622 11.8973 26.2195
14480 1 -1.1104 6.69558 6.31665 26.2175
14540 1 -1.1104 6.69528 11.8968 26.2194
14529 1 -1.1104 3.90607 9.10714 23.4289
14523 2 2.2208 2.51134 7.71384 24.8232
14583 2 2.2208 2.51096 13.2942 24.8252
14530 1 -1.1104 3.9059 9.10687 26.2185
14524 2 2.2208 2.51115 10.5043 22.0348
14471 1 -1.1104 3.90609 6.31691 23.4281
14531 1 -1.1104 3.90574 11.8973 23.43
14472 1 -1.1104 3.90625 6.31672 26.2174
14532 1 -1.1104 3.90585 11.8969 26.2193
193 2 2.2208 5.30047 13.2935 27.6146
124 2 2.2208 2.51113 10.5038 27.6137
133 2 2.2208 5.30082 7.7135 27.6127
14607 2 2.2208 13.6691 13.2947 24.8251
14547 2 2.2208 13.6693 7.7141 24.8232
14541 1 -1.1104 9.48511 9.10716 23.4289
14552 1 -1.1104 12.2744 11.8972 26.2193
14492 1 -1.1104 12.2746 6.31689 26.2174
14546 2 2.2208 10.8797 10.5041 24.8241
148 2 2.2208 13.6692 10.504 27.6136
14551 1 -1.1104 12.2745 11.8978 23.4299
14491 1 -1.1104 12.2747 6.31714 23.428
14550 1 -1.1104 12.2746 9.10709 26.2184
14549 1 -1.1104 12.2745 9.10747 23.4289
14544 1 -1.1104 9.48497 11.8969 26.2193
14484 1 -1.1104 9.48526 6.31669 26.2174
14543 1 -1.1104 9.48486 11.8974 23.4298
14483 1 -1.1104 9.48509 6.31692 23.428
14536 2 2.2208 8.09022 10.5042 22.0347
14542 1 -1.1104 9.48496 9.10683 26.2184
14595 2 2.2208 8.09007 13.2939 24.8251
14535 2 2.2208 8.09035 7.71369 24.8232
14545 2 2.2208 10.8798 7.71412 22.0337
14605 2 2.2208 10.8796 13.2948 22.0357
205 2 2.2208 10.8796 13.2937 27.6146
136 2 2.2208 8.09019 10.5035 27.6136
145 2 2.2208 10.8798 7.71362 27.6127
14548 2 2.2208 13.6692 10.5048 22.0347
14644 2 2.2208 2.51031 21.6651 22.0386
14591 1 -1.1104 3.90532 17.4775 23.4319
14587 1 -1.1104 1.11582 17.4782 23.4317
14599 1 -1.1104 6.69506 17.4772 23.4317
14590 1 -1.1104 3.90553 14.687 26.2204
14592 1 -1.1104 3.90535 17.4769 26.2211
14643 2 2.2208 2.51047 18.8744 24.8271
14650 1 -1.1104 3.90501 20.2667 26.2222
14653 2 2.2208 5.30019 18.8745 22.0376
14585 1 -1.1104 1.11599 14.688 23.431
14645 1 -1.1104 1.11546 20.2685 23.4329
14597 1 -1.1104 6.69517 14.6873 23.4308
14594 2 2.2208 5.3003 16.0839 24.8261
14654 2 2.2208 5.29989 21.6636 24.8279
14657 1 -1.1104 6.69485 20.2671 23.4326
14586 1 -1.1104 1.1161 14.6875 26.2203
14588 1 -1.1104 1.11571 17.4776 26.2214
14646 1 -1.1104 1.11549 20.2677 26.222
14600 1 -1.1104 6.69494 17.4765 26.2212
14589 1 -1.1104 3.90566 14.6875 23.4308
14598 1 -1.1104 6.69522 14.6867 26.2203
14649 1 -1.1104 3.90515 20.2675 23.4326
14584 2 2.2208 2.51073 16.0848 22.0367
184 2 2.2208 2.51069 16.0838 27.6156
14658 1 -1.1104 6.69475 20.2661 26.222
14604 1 -1.1104 9.48467 17.4766 26.2212
14603 1 -1.1104 9.48471 17.4775 23.4316
208 2 2.2208 13.669 16.0843 27.6156
14665 2 2.2208 10.8795 18.8754 22.0375
14609 1 -1.1104 12.2743 14.688 23.4307
14669 1 -1.1104 12.2743 20.2684 23.4323
14610 1 -1.1104 12.2744 14.6873 26.2203
14670 1 -1.1104 12.2741 20.267 26.2221
14611 1 -1.1104 12.2743 17.4782 23.4317
14606 2 2.2208 10.8795 16.0843 24.826
14666 2 2.2208 10.8793 21.6641 24.8278
14612 1 -1.1104 12.2742 17.4772 26.2211
14601 1 -1.1104 9.48484 14.6875 23.4308
14661 1 -1.1104 9.48458 20.2673 23.4326
7466 2 2.2208 10.8799 21.667 13.6709
7454 2 2.2208 5.30034 21.6644 13.6707
7455 2 2.2208 8.09011 18.8751 13.6698
7467 2 2.2208 13.6691 18.8777 13.6699
7443 2 2.2208 2.51054 18.8749 13.6697
3913 2 2.2208 5.29956 24.4508 5.30276
3973 2 2.2208 5.29914 30.028 5.30324
305 1 -1.1104 1.11462 25.8469 1.11906
306 1 -1.1104 1.1145 25.8459 3.90812
247 1 -1.1104 1.11506 23.0569 1.11793
307 1 -1.1104 1.1141 28.6369 1.11918
314 2 2.2208 5.29927 27.2406 2.51391
248 1 -1.1104 1.11493 23.0563 3.90787
308 1 -1.1104 1.11402 28.6356 3.90914
309 1 -1.1104 3.9042 25.8449 1.1185
303 2 2.2208 2.50978 24.4527 2.51329
363 2 2.2208 2.50927 30.0323 2.51442
310 1 -1.1104 3.90418 25.8437 3.90845
3904 2 2.2208 2.50946 27.2415 5.30318
251 1 -1.1104 3.90462 23.0555 1.11818
311 1 -1.1104 3.90381 28.6343 1.11947
252 1 -1.1104 3.90462 23.0547 3.90747
312 1 -1.1104 3.90351 28.6326 3.90839
317 1 -1.1104 6.69411 25.8434 1.11881
318 1 -1.1104 6.69408 25.8422 3.90825
259 1 -1.1104 6.69442 23.0545 1.11796
319 1 -1.1104 6.69365 28.6322 1.11914
260 1 -1.1104 6.69438 23.0537 3.90775
320 1 -1.1104 6.69379 28.6302 3.90891
7588 2 2.2208 13.67 32.8334 10.8856
7528 2 2.2208 13.6695 27.2493 10.8841
4167 2 2.2208 13.6356 46.5823 7.96395
3925 2 2.2208 10.8793 24.4514 5.30339
3985 2 2.2208 10.8791 30.0283 5.30479
329 1 -1.1104 12.274 25.8444 1.11897
330 1 -1.1104 12.2742 25.8436 3.90937
271 1 -1.1104 12.2741 23.0555 1.11838
331 1 -1.1104 12.2739 28.6331 1.12029
326 2 2.2208 10.879 27.2404 2.51461
272 1 -1.1104 12.274 23.0549 3.90803
332 1 -1.1104 12.274 28.6315 3.90986
321 1 -1.1104 9.48408 25.8432 1.11893
315 2 2.2208 8.08934 24.4509 2.51341
375 2 2.2208 8.08898 30.0286 2.51479
322 1 -1.1104 9.48412 25.842 3.90862
3916 2 2.2208 8.08931 27.2389 5.30357
263 1 -1.1104 9.48426 23.0544 1.11807
323 1 -1.1104 9.48388 28.6315 1.11957
264 1 -1.1104 9.48442 23.0538 3.90796
324 1 -1.1104 9.48392 28.6299 3.90941
3928 2 2.2208 13.6688 27.2426 5.30484
327 2 2.2208 13.6687 24.4531 2.51392
387 2 2.2208 13.6683 30.0319 2.51645
4169 1 -1.1104 12.3343 47.9447 6.74848
7706 2 2.2208 10.7202 43.8576 13.5235
4107 2 2.2208 13.6631 41.2165 8.10085
385 2 2.2208 10.8787 30.0305 -0.273465
4033 2 2.2208 5.29917 35.6058 5.30132
365 1 -1.1104 1.11357 31.4273 1.12022
425 1 -1.1104 1.11155 37.0098 1.12046
437 1 -1.1104 6.69152 36.9994 1.11911
366 1 -1.1104 1.113 31.4251 3.90871
426 1 -1.1104 1.10983 37.0056 3.90757
438 1 -1.1104 6.68939 36.9929 3.90665
367 1 -1.1104 1.11255 34.2178 1.11986
374 2 2.2208 5.29906 32.8199 2.51465
434 2 2.2208 5.29966 38.4025 2.51339
368 1 -1.1104 1.1126 34.2152 3.90928
380 1 -1.1104 6.69266 34.2053 3.90853
369 1 -1.1104 3.90307 31.4238 1.11932
429 1 -1.1104 3.90076 37.0042 1.11865
423 2 2.2208 2.50914 35.6137 2.51451
370 1 -1.1104 3.90318 31.4213 3.90906
430 1 -1.1104 3.90079 36.9992 3.90737
3964 2 2.2208 2.50908 32.82 5.30281
4024 2 2.2208 2.50898 38.3998 5.29873
371 1 -1.1104 3.9025 34.2138 1.11986
372 1 -1.1104 3.90137 34.21 3.90798
377 1 -1.1104 6.6933 31.4209 1.11985
378 1 -1.1104 6.69282 31.418 3.90863
379 1 -1.1104 6.69231 34.2101 1.1195
4025 1 -1.1104 1.11167 37.0005 6.6976
4037 1 -1.1104 6.69116 36.9848 6.69656
3967 1 -1.1104 1.11172 34.2121 6.69788
3979 1 -1.1104 6.69172 34.2006 6.69761
3969 1 -1.1104 3.9027 31.4189 6.69813
4029 1 -1.1104 3.89888 36.9926 6.69585
3971 1 -1.1104 3.90245 34.2059 6.69839
433 2 2.2208 5.29941 35.6131 -0.272059
364 2 2.2208 2.50944 32.8244 -0.273155
424 2 2.2208 2.51019 38.4086 -0.27083
447 2 2.2208 13.6665 35.6143 2.52122
4045 2 2.2208 10.8786 35.6048 5.30331
389 1 -1.1104 12.2736 31.4212 1.12093
449 1 -1.1104 12.2721 36.999 1.12421
390 1 -1.1104 12.274 31.4193 3.91136
450 1 -1.1104 12.2726 36.9938 3.91278
391 1 -1.1104 12.2736 34.2102 1.12284
386 2 2.2208 10.8785 32.8186 2.51667
446 2 2.2208 10.8769 38.4054 2.5217
392 1 -1.1104 12.2738 34.2057 3.91121
381 1 -1.1104 9.4835 31.4199 1.12024