LAMMPS (29 Oct 2020)
OMP_NUM_THREADS environment is not set. Defaulting to 1 thread. (../comm.cpp:94)
  using 1 OpenMP thread(s) per MPI task
#-------------------------
#
#This script is used to create different concentrations of vacancies in thorium dioxide
#By Ziqiang Wang on 07/03/2023
#
#-------------------------

shell                        replace_file.sh
variable                     n       loop   15
label                        loop
clear
OMP_NUM_THREADS environment is not set. Defaulting to 1 thread. (../comm.cpp:94)
  using 1 OpenMP thread(s) per MPI task
units                        metal
dimension                        3
boundary                     p p p
atom_style                   full
atom_modify                  map array

read_data                    add_Xe.dat
Reading data file ...
  orthogonal box = (-0.27717828 -3.4472206 -0.27717828) to (27.617178 331.52722 27.617178)
  2 by 13 by 2 MPI processor grid
  reading atoms ...
  17644 atoms
Finding 1-2 1-3 1-4 neighbors ...
  special bond factors lj:    0.0      0.0      0.0     
  special bond factors coul:  0.0      0.0      0.0     
     0 = max # of 1-2 neighbors
     0 = max # of 1-3 neighbors
     0 = max # of 1-4 neighbors
     1 = max # of special neighbors
  special bonds CPU = 0.004 seconds
  read_data CPU = 0.065 seconds

# randomly create vacancies in the relaxed perfect crystal
set                         type    1      charge   -1.1104
Setting atom values ...
  11760 settings made for charge
set                         type    2      charge    2.2208
Setting atom values ...
  5880 settings made for charge
set                         type    3      charge    0.0
Setting atom values ...
  4 settings made for charge
kspace_style                pppm     1.0e-05
pair_style                  hybrid/overlay  coul/long   11.0  eam/alloy  table  linear  100000  pppm
pair_coeff                  * * coul/long
pair_coeff                  * * eam/alloy CeThUNpPuAmCmO.eam.alloy O Th NULL
pair_coeff                  3 3 table CRG_gas_potentials.lmptab Xe-Xe 11
WARNING: 13 of 1000 force values in table Xe-Xe are inconsistent with -dE/dr.
  Should only be flagged at inflection points (../pair_table.cpp:461)
pair_coeff                  1 3 table CRG_gas_potentials.lmptab Xe-O 11
WARNING: 2 of 1000 force values in table Xe-O are inconsistent with -dE/dr.
  Should only be flagged at inflection points (../pair_table.cpp:461)
pair_coeff                  2 3 table CRG_gas_potentials.lmptab Xe-Th 11
WARNING: 2 of 1000 force values in table Xe-Th are inconsistent with -dE/dr.
  Should only be flagged at inflection points (../pair_table.cpp:461)
neighbor                    2.0  bin
neigh_modify                every  1  delay  0  check  yes

dump               1   all  custom  10000 dump_relax.atom.* id type q x y z
dump_modify        1   element  O Th Xe

min_style          cg
minimize           1.0e-30 1.0e-30 10000 10000
PPPM initialization ...
  using 12-bit tables for long-range coulomb (../kspace.cpp:328)
  G vector (1/distance) = 0.29912134
  grid = 40 240 40
  stencil order = 5
  estimated absolute RMS force accuracy = 0.0001537511
  estimated relative force accuracy = 1.0677423e-05
  using single precision MKL FFT
  3d grid and FFT values/proc = 18225 7600
Neighbor list info ...
  update every 1 steps, delay 0 steps, check yes
  max neighbors/atom: 2000, page size: 100000
  master list distance cutoff = 13
  ghost atom cutoff = 13
  binsize = 6.5, bins = 5 52 5
  3 neighbor lists, perpetual/occasional/extra = 3 0 0
  (1) pair coul/long, perpetual
      attributes: half, newton on
      pair build: half/bin/newton
      stencil: half/bin/3d/newton
      bin: standard
  (2) pair eam/alloy, perpetual, skip from (1)
      attributes: half, newton on
      pair build: skip
      stencil: none
      bin: none
  (3) pair table, perpetual, skip from (1)
      attributes: half, newton on
      pair build: skip
      stencil: none
      bin: none
Per MPI rank memory allocation (min/avg/max) = 11.65 | 12.37 | 12.42 Mbytes
Step Temp E_pair E_mol TotEng Press 
       0            0   -231784.04            0   -231784.04      1054.64 
     324            0   -231784.12            0   -231784.12    1052.9502 
Loop time of 7.629 on 52 procs for 324 steps with 17644 atoms

99.7% CPU use with 52 MPI tasks x 1 OpenMP threads

Minimization stats:
  Stopping criterion = linesearch alpha is zero
  Energy initial, next-to-last, final = 
     -231784.041582812  -231784.118179205  -231784.118179205
  Force two-norm initial, final = 0.052064018 0.022633884
  Force max component initial, final = 0.0348448 0.0034901244
  Final line search alpha, max atom move = 1.5258789e-05 5.3255072e-08
  Iterations, force evaluations = 324 941

MPI task timing breakdown:
Section |  min time  |  avg time  |  max time  |%varavg| %total
---------------------------------------------------------------
Pair    | 5.6613     | 5.8556     | 6.0978     |   4.0 | 76.75
Bond    | 7.2148e-05 | 0.0001061  | 0.00020026 |   0.0 |  0.00
Kspace  | 1.3088     | 1.5533     | 1.7466     |   7.8 | 20.36
Neigh   | 0.015761   | 0.017734   | 0.019571   |   0.6 |  0.23
Comm    | 0.15366    | 0.15849    | 0.16411    |   0.6 |  2.08
Output  | 0          | 0          | 0          |   0.0 |  0.00
Modify  | 0          | 0          | 0          |   0.0 |  0.00
Other   |            | 0.04381    |            |       |  0.57

Nlocal:        339.308 ave         368 max         305 min
Histogram: 2 1 3 4 7 14 10 7 2 2
Nghost:        5526.27 ave        5710 max        5357 min
Histogram: 16 0 2 2 8 4 3 5 0 12
Neighs:       107596.0 ave      118860 max       95841 min
Histogram: 1 4 4 5 8 14 4 7 3 2

Total # of neighbors = 5594981
Ave neighs/atom = 317.10389
Ave special neighs/atom = 0.0000000
Neighbor list builds = 6
Dangerous builds = 0
reset_atom_ids
Resetting atom IDs ...
PPPM initialization ...
  using 12-bit tables for long-range coulomb (../kspace.cpp:328)
  G vector (1/distance) = 0.29912134
  grid = 40 240 40
  stencil order = 5
  estimated absolute RMS force accuracy = 0.0001537511
  estimated relative force accuracy = 1.0677423e-05
  using single precision MKL FFT
  3d grid and FFT values/proc = 18225 7600
Neighbor list info ...
  update every 1 steps, delay 0 steps, check yes
  max neighbors/atom: 2000, page size: 100000
  master list distance cutoff = 13
  ghost atom cutoff = 13
  binsize = 6.5, bins = 5 52 5
  3 neighbor lists, perpetual/occasional/extra = 3 0 0
  (1) pair coul/long, perpetual
      attributes: half, newton on
      pair build: half/bin/newton
      stencil: half/bin/3d/newton
      bin: standard
  (2) pair eam/alloy, perpetual, skip from (1)
      attributes: half, newton on
      pair build: skip
      stencil: none
      bin: none
  (3) pair table, perpetual, skip from (1)
      attributes: half, newton on
      pair build: skip
      stencil: none
      bin: none
Finding 1-2 1-3 1-4 neighbors ...
  special bond factors lj:    0.0      0.0      0.0     
  special bond factors coul:  0.0      0.0      0.0     
     0 = max # of 1-2 neighbors
     0 = max # of 1-3 neighbors
     0 = max # of 1-4 neighbors
     1 = max # of special neighbors
  special bonds CPU = 0.001 seconds
variable           T     equal   600
velocity           all   create  $T  4111 dist gaussian mom yes rot yes
velocity           all   create  600  4111 dist gaussian mom yes rot yes
fix                nvt   all     nvt   temp  $T  $T  0.1
fix                nvt   all     nvt   temp  600  $T  0.1
fix                nvt   all     nvt   temp  600  600  0.1
run                10000
PPPM initialization ...
  using 12-bit tables for long-range coulomb (../kspace.cpp:328)
  G vector (1/distance) = 0.29912134
  grid = 40 240 40
  stencil order = 5
  estimated absolute RMS force accuracy = 0.0001537511
  estimated relative force accuracy = 1.0677423e-05
  using single precision MKL FFT
  3d grid and FFT values/proc = 18225 7600
Neighbor list info ...
  update every 1 steps, delay 0 steps, check yes
  max neighbors/atom: 2000, page size: 100000
  master list distance cutoff = 13
  ghost atom cutoff = 13
  binsize = 6.5, bins = 5 52 5
  3 neighbor lists, perpetual/occasional/extra = 3 0 0
  (1) pair coul/long, perpetual
      attributes: half, newton on
      pair build: half/bin/newton
      stencil: half/bin/3d/newton
      bin: standard
  (2) pair eam/alloy, perpetual, skip from (1)
      attributes: half, newton on
      pair build: skip
      stencil: none
      bin: none
  (3) pair table, perpetual, skip from (1)
      attributes: half, newton on
      pair build: skip
      stencil: none
      bin: none
Per MPI rank memory allocation (min/avg/max) = 10.52 | 11.25 | 11.30 Mbytes
Step Temp E_pair E_mol TotEng Press 
     324          600   -231784.12            0    -230415.8    6660.3698 
   10324    601.87754   -230480.17            0   -229107.57    26998.333 
Loop time of 71.5717 on 52 procs for 10000 steps with 17644 atoms

Performance: 12.072 ns/day, 1.988 hours/ns, 139.720 timesteps/s
99.8% CPU use with 52 MPI tasks x 1 OpenMP threads

MPI task timing breakdown:
Section |  min time  |  avg time  |  max time  |%varavg| %total
---------------------------------------------------------------
Pair    | 51.64      | 53.502     | 56.031     |  13.9 | 74.75
Bond    | 0.0008718  | 0.001292   | 0.0020386  |   0.6 |  0.00
Kspace  | 13.263     | 15.706     | 17.46      |  24.9 | 21.94
Neigh   | 0.30189    | 0.33682    | 0.36706    |   2.4 |  0.47
Comm    | 1.3835     | 1.5033     | 1.6934     |   6.4 |  2.10
Output  | 0.0014534  | 0.0018922  | 0.0042892  |   1.0 |  0.00
Modify  | 0.22323    | 0.38355    | 0.55603    |  19.0 |  0.54
Other   |            | 0.1371     |            |       |  0.19

Nlocal:        339.308 ave         366 max         311 min
Histogram: 1 0 3 3 20 10 11 0 1 3
Nghost:        5529.87 ave        5707 max        5357 min
Histogram: 11 5 0 2 9 6 3 2 2 12
Neighs:       108156.0 ave      118569 max       92185 min
Histogram: 1 2 1 4 3 10 15 12 1 3

Total # of neighbors = 5624110
Ave neighs/atom = 318.75482
Ave special neighs/atom = 0.0000000
Neighbor list builds = 111
Dangerous builds = 0
unfix              nvt
write_data         Xe_relaxed.dat
System init for write_data ...
PPPM initialization ...
  using 12-bit tables for long-range coulomb (../kspace.cpp:328)
  G vector (1/distance) = 0.29912134
  grid = 40 240 40
  stencil order = 5
  estimated absolute RMS force accuracy = 0.0001537511
  estimated relative force accuracy = 1.0677423e-05
  using single precision MKL FFT
  3d grid and FFT values/proc = 18225 7600
Neighbor list info ...
  update every 1 steps, delay 0 steps, check yes
  max neighbors/atom: 2000, page size: 100000
  master list distance cutoff = 13
  ghost atom cutoff = 13
  binsize = 6.5, bins = 5 52 5
  3 neighbor lists, perpetual/occasional/extra = 3 0 0
  (1) pair coul/long, perpetual
      attributes: half, newton on
      pair build: half/bin/newton
      stencil: half/bin/3d/newton
      bin: standard
  (2) pair eam/alloy, perpetual, skip from (1)
      attributes: half, newton on
      pair build: skip
      stencil: none
      bin: none
  (3) pair table, perpetual, skip from (1)
      attributes: half, newton on
      pair build: skip
      stencil: none
      bin: none
next               n
variable           tot    equal   17640+(${n}*4)
variable           tot    equal   17640+(2*4)
shell              add_Xe.sh ${tot}
shell              add_Xe.sh 17648
jump               random_vac.in   loop
clear
OMP_NUM_THREADS environment is not set. Defaulting to 1 thread. (../comm.cpp:94)
  using 1 OpenMP thread(s) per MPI task
units                        metal
dimension                        3
boundary                     p p p
atom_style                   full
atom_modify                  map array

read_data                    add_Xe.dat
Reading data file ...
  orthogonal box = (-0.27717828 -3.4472206 -0.27717828) to (27.617178 331.52722 27.617178)
  2 by 13 by 2 MPI processor grid
  reading atoms ...
  17648 atoms
Finding 1-2 1-3 1-4 neighbors ...
  special bond factors lj:    0.0      0.0      0.0     
  special bond factors coul:  0.0      0.0      0.0     
     0 = max # of 1-2 neighbors
     0 = max # of 1-3 neighbors
     0 = max # of 1-4 neighbors
     1 = max # of special neighbors
  special bonds CPU = 0.001 seconds
  read_data CPU = 0.034 seconds

# randomly create vacancies in the relaxed perfect crystal
set                         type    1      charge   -1.1104
Setting atom values ...
  11760 settings made for charge
set                         type    2      charge    2.2208
Setting atom values ...
  5880 settings made for charge
set                         type    3      charge    0.0
Setting atom values ...
  8 settings made for charge
kspace_style                pppm     1.0e-05
pair_style                  hybrid/overlay  coul/long   11.0  eam/alloy  table  linear  100000  pppm
pair_coeff                  * * coul/long
pair_coeff                  * * eam/alloy CeThUNpPuAmCmO.eam.alloy O Th NULL
pair_coeff                  3 3 table CRG_gas_potentials.lmptab Xe-Xe 11
WARNING: 13 of 1000 force values in table Xe-Xe are inconsistent with -dE/dr.
  Should only be flagged at inflection points (../pair_table.cpp:461)
pair_coeff                  1 3 table CRG_gas_potentials.lmptab Xe-O 11
WARNING: 2 of 1000 force values in table Xe-O are inconsistent with -dE/dr.
  Should only be flagged at inflection points (../pair_table.cpp:461)
pair_coeff                  2 3 table CRG_gas_potentials.lmptab Xe-Th 11
WARNING: 2 of 1000 force values in table Xe-Th are inconsistent with -dE/dr.
  Should only be flagged at inflection points (../pair_table.cpp:461)
neighbor                    2.0  bin
neigh_modify                every  1  delay  0  check  yes

dump               1   all  custom  10000 dump_relax.atom.* id type q x y z
dump_modify        1   element  O Th Xe

min_style          cg
minimize           1.0e-30 1.0e-30 10000 10000
PPPM initialization ...
  using 12-bit tables for long-range coulomb (../kspace.cpp:328)
  G vector (1/distance) = 0.29912103
  grid = 40 240 40
  stencil order = 5
  estimated absolute RMS force accuracy = 0.00015373496
  estimated relative force accuracy = 1.0676302e-05
  using single precision MKL FFT
  3d grid and FFT values/proc = 18225 7600
Neighbor list info ...
  update every 1 steps, delay 0 steps, check yes
  max neighbors/atom: 2000, page size: 100000
  master list distance cutoff = 13
  ghost atom cutoff = 13
  binsize = 6.5, bins = 5 52 5
  3 neighbor lists, perpetual/occasional/extra = 3 0 0
  (1) pair coul/long, perpetual
      attributes: half, newton on
      pair build: half/bin/newton
      stencil: half/bin/3d/newton
      bin: standard
  (2) pair eam/alloy, perpetual, skip from (1)
      attributes: half, newton on
      pair build: skip
      stencil: none
      bin: none
  (3) pair table, perpetual, skip from (1)
      attributes: half, newton on
      pair build: skip
      stencil: none
      bin: none
Per MPI rank memory allocation (min/avg/max) = 11.65 | 12.36 | 12.43 Mbytes
Step Temp E_pair E_mol TotEng Press 
       0            0   -230477.33            0   -230477.33    21441.841 
     261            0   -231863.95            0   -231863.95   -135.22838 
Loop time of 4.44885 on 52 procs for 261 steps with 17648 atoms

99.8% CPU use with 52 MPI tasks x 1 OpenMP threads

Minimization stats:
  Stopping criterion = linesearch alpha is zero
  Energy initial, next-to-last, final = 
     -230477.331914371  -231863.951719365  -231863.951719365
  Force two-norm initial, final = 205.40690 0.031301547
  Force max component initial, final = 4.3463075 0.0052470978
  Final line search alpha, max atom move = 7.6293945e-06 4.0032179e-08
  Iterations, force evaluations = 261 554

MPI task timing breakdown:
Section |  min time  |  avg time  |  max time  |%varavg| %total
---------------------------------------------------------------
Pair    | 3.3254     | 3.4259     | 3.5798     |   3.2 | 77.01
Bond    | 3.7746e-05 | 6.0951e-05 | 8.0843e-05 |   0.0 |  0.00
Kspace  | 0.73578    | 0.89211    | 0.99439    |   6.4 | 20.05
Neigh   | 0.016391   | 0.018011   | 0.019836   |   0.6 |  0.40
Comm    | 0.085103   | 0.08785    | 0.091005   |   0.4 |  1.97
Output  | 0          | 0          | 0          |   0.0 |  0.00
Modify  | 0          | 0          | 0          |   0.0 |  0.00
Other   |            | 0.02493    |            |       |  0.56

Nlocal:        339.385 ave         363 max         323 min
Histogram: 3 5 5 18 8 3 3 3 0 4
Nghost:        5529.12 ave        5702 max        5356 min
Histogram: 11 5 0 3 7 6 3 5 0 12
Neighs:       107646.0 ave      117179 max       96387 min
Histogram: 3 2 3 6 3 16 9 3 3 4

Total # of neighbors = 5597575
Ave neighs/atom = 317.17900
Ave special neighs/atom = 0.0000000
Neighbor list builds = 6
Dangerous builds = 0
reset_atom_ids
Resetting atom IDs ...
PPPM initialization ...
  using 12-bit tables for long-range coulomb (../kspace.cpp:328)
  G vector (1/distance) = 0.29912103
  grid = 40 240 40
  stencil order = 5
  estimated absolute RMS force accuracy = 0.00015373496
  estimated relative force accuracy = 1.0676302e-05
  using single precision MKL FFT
  3d grid and FFT values/proc = 18225 7600
Neighbor list info ...
  update every 1 steps, delay 0 steps, check yes
  max neighbors/atom: 2000, page size: 100000
  master list distance cutoff = 13
  ghost atom cutoff = 13
  binsize = 6.5, bins = 5 52 5
  3 neighbor lists, perpetual/occasional/extra = 3 0 0
  (1) pair coul/long, perpetual
      attributes: half, newton on
      pair build: half/bin/newton
      stencil: half/bin/3d/newton
      bin: standard
  (2) pair eam/alloy, perpetual, skip from (1)
      attributes: half, newton on
      pair build: skip
      stencil: none
      bin: none
  (3) pair table, perpetual, skip from (1)
      attributes: half, newton on
      pair build: skip
      stencil: none
      bin: none
Finding 1-2 1-3 1-4 neighbors ...
  special bond factors lj:    0.0      0.0      0.0     
  special bond factors coul:  0.0      0.0      0.0     
     0 = max # of 1-2 neighbors
     0 = max # of 1-3 neighbors
     0 = max # of 1-4 neighbors
     1 = max # of special neighbors
  special bonds CPU = 0.001 seconds
variable           T     equal   600
velocity           all   create  $T  4111 dist gaussian mom yes rot yes
velocity           all   create  600  4111 dist gaussian mom yes rot yes
fix                nvt   all     nvt   temp  $T  $T  0.1
fix                nvt   all     nvt   temp  600  $T  0.1
fix                nvt   all     nvt   temp  600  600  0.1
run                10000
PPPM initialization ...
  using 12-bit tables for long-range coulomb (../kspace.cpp:328)
  G vector (1/distance) = 0.29912103
  grid = 40 240 40
  stencil order = 5
  estimated absolute RMS force accuracy = 0.00015373496
  estimated relative force accuracy = 1.0676302e-05
  using single precision MKL FFT
  3d grid and FFT values/proc = 18225 7600
Neighbor list info ...
  update every 1 steps, delay 0 steps, check yes
  max neighbors/atom: 2000, page size: 100000
  master list distance cutoff = 13
  ghost atom cutoff = 13
  binsize = 6.5, bins = 5 52 5
  3 neighbor lists, perpetual/occasional/extra = 3 0 0
  (1) pair coul/long, perpetual
      attributes: half, newton on
      pair build: half/bin/newton
      stencil: half/bin/3d/newton
      bin: standard
  (2) pair eam/alloy, perpetual, skip from (1)
      attributes: half, newton on
      pair build: skip
      stencil: none
      bin: none
  (3) pair table, perpetual, skip from (1)
      attributes: half, newton on
      pair build: skip
      stencil: none
      bin: none
Per MPI rank memory allocation (min/avg/max) = 10.53 | 11.22 | 11.30 Mbytes
Step Temp E_pair E_mol TotEng Press 
     261          600   -231863.95            0   -230495.32    5473.4625 
   10261    598.18739   -230481.07            0   -229116.57    27058.607 
Loop time of 71.4226 on 52 procs for 10000 steps with 17648 atoms

Performance: 12.097 ns/day, 1.984 hours/ns, 140.012 timesteps/s
99.8% CPU use with 52 MPI tasks x 1 OpenMP threads

MPI task timing breakdown:
Section |  min time  |  avg time  |  max time  |%varavg| %total
---------------------------------------------------------------
Pair    | 51.843     | 53.551     | 56.19      |  13.7 | 74.98
Bond    | 0.00080571 | 0.001327   | 0.0017562  |   0.6 |  0.00
Kspace  | 13.104     | 15.628     | 17.223     |  24.5 | 21.88
Neigh   | 0.23268    | 0.25791    | 0.28061    |   2.1 |  0.36
Comm    | 1.38       | 1.484      | 1.6614     |   6.0 |  2.08
Output  | 0.0018049  | 0.0022502  | 0.004911   |   0.9 |  0.00
Modify  | 0.19879    | 0.35155    | 0.52557    |  19.6 |  0.49
Other   |            | 0.1457     |            |       |  0.20

Nlocal:        339.385 ave         365 max         320 min
Histogram: 4 0 5 14 15 7 2 1 1 3
Nghost:        5532.10 ave        5702 max        5357 min
Histogram: 8 8 0 1 4 12 3 4 0 12
Neighs:       108194.0 ave      118729 max       94234 min
Histogram: 3 0 4 2 3 16 13 6 2 3

Total # of neighbors = 5626102
Ave neighs/atom = 318.79544
Ave special neighs/atom = 0.0000000
Neighbor list builds = 85
Dangerous builds = 0
unfix              nvt
write_data         Xe_relaxed.dat
System init for write_data ...
PPPM initialization ...
  using 12-bit tables for long-range coulomb (../kspace.cpp:328)
  G vector (1/distance) = 0.29912103
  grid = 40 240 40
  stencil order = 5
  estimated absolute RMS force accuracy = 0.00015373496
  estimated relative force accuracy = 1.0676302e-05
  using single precision MKL FFT
  3d grid and FFT values/proc = 18225 7600
Neighbor list info ...
  update every 1 steps, delay 0 steps, check yes
  max neighbors/atom: 2000, page size: 100000
  master list distance cutoff = 13
  ghost atom cutoff = 13
  binsize = 6.5, bins = 5 52 5
  3 neighbor lists, perpetual/occasional/extra = 3 0 0
  (1) pair coul/long, perpetual
      attributes: half, newton on
      pair build: half/bin/newton
      stencil: half/bin/3d/newton
      bin: standard
  (2) pair eam/alloy, perpetual, skip from (1)
      attributes: half, newton on
      pair build: skip
      stencil: none
      bin: none
  (3) pair table, perpetual, skip from (1)
      attributes: half, newton on
      pair build: skip
      stencil: none
      bin: none
next               n
variable           tot    equal   17640+(${n}*4)
variable           tot    equal   17640+(3*4)
shell              add_Xe.sh ${tot}
shell              add_Xe.sh 17652
jump               random_vac.in   loop
clear
OMP_NUM_THREADS environment is not set. Defaulting to 1 thread. (../comm.cpp:94)
  using 1 OpenMP thread(s) per MPI task
units                        metal
dimension                        3
boundary                     p p p
atom_style                   full
atom_modify                  map array

read_data                    add_Xe.dat
Reading data file ...
  orthogonal box = (-0.27717828 -3.4472206 -0.27717828) to (27.617178 331.52722 27.617178)
  2 by 13 by 2 MPI processor grid
  reading atoms ...
  17652 atoms
Finding 1-2 1-3 1-4 neighbors ...
  special bond factors lj:    0.0      0.0      0.0     
  special bond factors coul:  0.0      0.0      0.0     
     0 = max # of 1-2 neighbors
     0 = max # of 1-3 neighbors
     0 = max # of 1-4 neighbors
     1 = max # of special neighbors
  special bonds CPU = 0.001 seconds
  read_data CPU = 0.027 seconds

# randomly create vacancies in the relaxed perfect crystal
set                         type    1      charge   -1.1104
Setting atom values ...
  11760 settings made for charge
set                         type    2      charge    2.2208
Setting atom values ...
  5880 settings made for charge
set                         type    3      charge    0.0
Setting atom values ...
  12 settings made for charge
kspace_style                pppm     1.0e-05
pair_style                  hybrid/overlay  coul/long   11.0  eam/alloy  table  linear  100000  pppm
pair_coeff                  * * coul/long
pair_coeff                  * * eam/alloy CeThUNpPuAmCmO.eam.alloy O Th NULL
pair_coeff                  3 3 table CRG_gas_potentials.lmptab Xe-Xe 11
WARNING: 13 of 1000 force values in table Xe-Xe are inconsistent with -dE/dr.
  Should only be flagged at inflection points (../pair_table.cpp:461)
pair_coeff                  1 3 table CRG_gas_potentials.lmptab Xe-O 11
WARNING: 2 of 1000 force values in table Xe-O are inconsistent with -dE/dr.
  Should only be flagged at inflection points (../pair_table.cpp:461)
pair_coeff                  2 3 table CRG_gas_potentials.lmptab Xe-Th 11
WARNING: 2 of 1000 force values in table Xe-Th are inconsistent with -dE/dr.
  Should only be flagged at inflection points (../pair_table.cpp:461)
neighbor                    2.0  bin
neigh_modify                every  1  delay  0  check  yes

dump               1   all  custom  10000 dump_relax.atom.* id type q x y z
dump_modify        1   element  O Th Xe

min_style          cg
minimize           1.0e-30 1.0e-30 10000 10000
PPPM initialization ...
  using 12-bit tables for long-range coulomb (../kspace.cpp:328)
  G vector (1/distance) = 0.29912072
  grid = 40 240 40
  stencil order = 5
  estimated absolute RMS force accuracy = 0.00015371882
  estimated relative force accuracy = 1.0675182e-05
  using single precision MKL FFT
  3d grid and FFT values/proc = 18225 7600
Neighbor list info ...
  update every 1 steps, delay 0 steps, check yes
  max neighbors/atom: 2000, page size: 100000
  master list distance cutoff = 13
  ghost atom cutoff = 13
  binsize = 6.5, bins = 5 52 5
  3 neighbor lists, perpetual/occasional/extra = 3 0 0
  (1) pair coul/long, perpetual
      attributes: half, newton on
      pair build: half/bin/newton
      stencil: half/bin/3d/newton
      bin: standard
  (2) pair eam/alloy, perpetual, skip from (1)
      attributes: half, newton on
      pair build: skip
      stencil: none
      bin: none
  (3) pair table, perpetual, skip from (1)
      attributes: half, newton on
      pair build: skip
      stencil: none
      bin: none
Per MPI rank memory allocation (min/avg/max) = 11.65 | 12.36 | 12.43 Mbytes
Step Temp E_pair E_mol TotEng Press 
       0            0   -230476.65            0   -230476.65    21564.493 
     364            0   -231863.99            0   -231863.99   -104.85844 
Loop time of 7.21152 on 52 procs for 364 steps with 17652 atoms

99.8% CPU use with 52 MPI tasks x 1 OpenMP threads

Minimization stats:
  Stopping criterion = linesearch alpha is zero
  Energy initial, next-to-last, final = 
     -230476.651508987   -231863.99496024   -231863.99496024
  Force two-norm initial, final = 207.10757 0.022744746
  Force max component initial, final = 9.0229935 0.0040225291
  Final line search alpha, max atom move = 1.5258789e-05 6.1378923e-08
  Iterations, force evaluations = 364 904

MPI task timing breakdown:
Section |  min time  |  avg time  |  max time  |%varavg| %total
---------------------------------------------------------------
Pair    | 5.4364     | 5.5865     | 5.8211     |   3.7 | 77.47
Bond    | 6.0478e-05 | 0.0001003  | 0.0002617  |   0.0 |  0.00
Kspace  | 1.1847     | 1.4213     | 1.5725     |   7.3 | 19.71
Neigh   | 0.01929    | 0.021073   | 0.023159   |   0.6 |  0.29
Comm    | 0.13699    | 0.14231    | 0.14751    |   0.7 |  1.97
Output  | 0          | 0          | 0          |   0.0 |  0.00
Modify  | 0          | 0          | 0          |   0.0 |  0.00
Other   |            | 0.04024    |            |       |  0.56

Nlocal:        339.462 ave         363 max         311 min
Histogram: 1 0 2 3 13 21 2 6 0 4
Nghost:        5531.37 ave        5702 max        5356 min
Histogram: 10 6 0 1 8 7 2 6 0 12
Neighs:       107689.0 ave      117112 max       95866 min
Histogram: 2 2 2 7 4 10 15 3 3 4

Total # of neighbors = 5599817
Ave neighs/atom = 317.23414
Ave special neighs/atom = 0.0000000
Neighbor list builds = 7
Dangerous builds = 0
reset_atom_ids
Resetting atom IDs ...
PPPM initialization ...
  using 12-bit tables for long-range coulomb (../kspace.cpp:328)
  G vector (1/distance) = 0.29912072
  grid = 40 240 40
  stencil order = 5
  estimated absolute RMS force accuracy = 0.00015371882
  estimated relative force accuracy = 1.0675182e-05
  using single precision MKL FFT
  3d grid and FFT values/proc = 18225 7600
Neighbor list info ...
  update every 1 steps, delay 0 steps, check yes
  max neighbors/atom: 2000, page size: 100000
  master list distance cutoff = 13
  ghost atom cutoff = 13
  binsize = 6.5, bins = 5 52 5
  3 neighbor lists, perpetual/occasional/extra = 3 0 0
  (1) pair coul/long, perpetual
      attributes: half, newton on
      pair build: half/bin/newton
      stencil: half/bin/3d/newton
      bin: standard
  (2) pair eam/alloy, perpetual, skip from (1)
      attributes: half, newton on
      pair build: skip
      stencil: none
      bin: none
  (3) pair table, perpetual, skip from (1)
      attributes: half, newton on
      pair build: skip
      stencil: none
      bin: none
Finding 1-2 1-3 1-4 neighbors ...
  special bond factors lj:    0.0      0.0      0.0     
  special bond factors coul:  0.0      0.0      0.0     
     0 = max # of 1-2 neighbors
     0 = max # of 1-3 neighbors
     0 = max # of 1-4 neighbors
     1 = max # of special neighbors
  special bonds CPU = 0.001 seconds
variable           T     equal   600
velocity           all   create  $T  4111 dist gaussian mom yes rot yes
velocity           all   create  600  4111 dist gaussian mom yes rot yes
fix                nvt   all     nvt   temp  $T  $T  0.1
fix                nvt   all     nvt   temp  600  $T  0.1
fix                nvt   all     nvt   temp  600  600  0.1
run                10000
PPPM initialization ...
  using 12-bit tables for long-range coulomb (../kspace.cpp:328)
  G vector (1/distance) = 0.29912072
  grid = 40 240 40
  stencil order = 5
  estimated absolute RMS force accuracy = 0.00015371882
  estimated relative force accuracy = 1.0675182e-05
  using single precision MKL FFT
  3d grid and FFT values/proc = 18225 7600
Neighbor list info ...
  update every 1 steps, delay 0 steps, check yes
  max neighbors/atom: 2000, page size: 100000
  master list distance cutoff = 13
  ghost atom cutoff = 13
  binsize = 6.5, bins = 5 52 5
  3 neighbor lists, perpetual/occasional/extra = 3 0 0
  (1) pair coul/long, perpetual
      attributes: half, newton on
      pair build: half/bin/newton
      stencil: half/bin/3d/newton
      bin: standard
  (2) pair eam/alloy, perpetual, skip from (1)
      attributes: half, newton on
      pair build: skip
      stencil: none
      bin: none
  (3) pair table, perpetual, skip from (1)
      attributes: half, newton on
      pair build: skip
      stencil: none
      bin: none
Per MPI rank memory allocation (min/avg/max) = 10.53 | 11.23 | 11.31 Mbytes
Step Temp E_pair E_mol TotEng Press 
     364          600   -231863.99            0   -230495.05    5505.1037 
   10364    604.18777   -230487.62            0   -229109.12    27060.855 
Loop time of 71.4112 on 52 procs for 10000 steps with 17652 atoms

Performance: 12.099 ns/day, 1.984 hours/ns, 140.034 timesteps/s
99.8% CPU use with 52 MPI tasks x 1 OpenMP threads

MPI task timing breakdown:
Section |  min time  |  avg time  |  max time  |%varavg| %total
---------------------------------------------------------------
Pair    | 51.939     | 53.472     | 56.192     |  13.3 | 74.88
Bond    | 0.00080705 | 0.0013261  | 0.0017978  |   0.7 |  0.00
Kspace  | 13.118     | 15.724     | 17.165     |  24.0 | 22.02
Neigh   | 0.22067    | 0.24552    | 0.26833    |   2.1 |  0.34
Comm    | 1.3775     | 1.4829     | 1.6752     |   6.4 |  2.08
Output  | 0.0017484  | 0.002212   | 0.0058154  |   1.2 |  0.00
Modify  | 0.18382    | 0.34571    | 0.52566    |  20.5 |  0.48
Other   |            | 0.1382     |            |       |  0.19

Nlocal:        339.462 ave         369 max         321 min
Histogram: 4 3 8 17 10 5 1 1 2 1
Nghost:        5526.58 ave        5701 max        5364 min
Histogram: 15 1 0 4 6 10 0 4 0 12
Neighs:       108245.0 ave      119425 max       94608 min
Histogram: 2 2 3 3 4 17 12 5 1 3

Total # of neighbors = 5628749
Ave neighs/atom = 318.87316
Ave special neighs/atom = 0.0000000
Neighbor list builds = 81
Dangerous builds = 0
unfix              nvt
write_data         Xe_relaxed.dat
System init for write_data ...
PPPM initialization ...
  using 12-bit tables for long-range coulomb (../kspace.cpp:328)
  G vector (1/distance) = 0.29912072
  grid = 40 240 40
  stencil order = 5
  estimated absolute RMS force accuracy = 0.00015371882
  estimated relative force accuracy = 1.0675182e-05
  using single precision MKL FFT
  3d grid and FFT values/proc = 18225 7600
Neighbor list info ...
  update every 1 steps, delay 0 steps, check yes
  max neighbors/atom: 2000, page size: 100000
  master list distance cutoff = 13
  ghost atom cutoff = 13
  binsize = 6.5, bins = 5 52 5
  3 neighbor lists, perpetual/occasional/extra = 3 0 0
  (1) pair coul/long, perpetual
      attributes: half, newton on
      pair build: half/bin/newton
      stencil: half/bin/3d/newton
      bin: standard
  (2) pair eam/alloy, perpetual, skip from (1)
      attributes: half, newton on
      pair build: skip
      stencil: none
      bin: none
  (3) pair table, perpetual, skip from (1)
      attributes: half, newton on
      pair build: skip
      stencil: none
      bin: none
next               n
variable           tot    equal   17640+(${n}*4)
variable           tot    equal   17640+(4*4)
shell              add_Xe.sh ${tot}
shell              add_Xe.sh 17656
jump               random_vac.in   loop
clear
OMP_NUM_THREADS environment is not set. Defaulting to 1 thread. (../comm.cpp:94)
  using 1 OpenMP thread(s) per MPI task
units                        metal
dimension                        3
boundary                     p p p
atom_style                   full
atom_modify                  map array

read_data                    add_Xe.dat
Reading data file ...
  orthogonal box = (-0.27717828 -3.4472206 -0.27717828) to (27.617178 331.52722 27.617178)
  2 by 13 by 2 MPI processor grid
  reading atoms ...
  17656 atoms
Finding 1-2 1-3 1-4 neighbors ...
  special bond factors lj:    0.0      0.0      0.0     
  special bond factors coul:  0.0      0.0      0.0     
     0 = max # of 1-2 neighbors
     0 = max # of 1-3 neighbors
     0 = max # of 1-4 neighbors
     1 = max # of special neighbors
  special bonds CPU = 0.001 seconds
  read_data CPU = 0.029 seconds

# randomly create vacancies in the relaxed perfect crystal
set                         type    1      charge   -1.1104
Setting atom values ...
  11760 settings made for charge
set                         type    2      charge    2.2208
Setting atom values ...
  5880 settings made for charge
set                         type    3      charge    0.0
Setting atom values ...
  16 settings made for charge
kspace_style                pppm     1.0e-05
pair_style                  hybrid/overlay  coul/long   11.0  eam/alloy  table  linear  100000  pppm
pair_coeff                  * * coul/long
pair_coeff                  * * eam/alloy CeThUNpPuAmCmO.eam.alloy O Th NULL
pair_coeff                  3 3 table CRG_gas_potentials.lmptab Xe-Xe 11
WARNING: 13 of 1000 force values in table Xe-Xe are inconsistent with -dE/dr.
  Should only be flagged at inflection points (../pair_table.cpp:461)
pair_coeff                  1 3 table CRG_gas_potentials.lmptab Xe-O 11
WARNING: 2 of 1000 force values in table Xe-O are inconsistent with -dE/dr.
  Should only be flagged at inflection points (../pair_table.cpp:461)
pair_coeff                  2 3 table CRG_gas_potentials.lmptab Xe-Th 11
WARNING: 2 of 1000 force values in table Xe-Th are inconsistent with -dE/dr.
  Should only be flagged at inflection points (../pair_table.cpp:461)
neighbor                    2.0  bin
neigh_modify                every  1  delay  0  check  yes

dump               1   all  custom  10000 dump_relax.atom.* id type q x y z
dump_modify        1   element  O Th Xe

min_style          cg
minimize           1.0e-30 1.0e-30 10000 10000
PPPM initialization ...
  using 12-bit tables for long-range coulomb (../kspace.cpp:328)
  G vector (1/distance) = 0.29912041
  grid = 40 240 40
  stencil order = 5
  estimated absolute RMS force accuracy = 0.0001537027
  estimated relative force accuracy = 1.0674062e-05
  using single precision MKL FFT
  3d grid and FFT values/proc = 18225 7600
Neighbor list info ...
  update every 1 steps, delay 0 steps, check yes
  max neighbors/atom: 2000, page size: 100000
  master list distance cutoff = 13
  ghost atom cutoff = 13
  binsize = 6.5, bins = 5 52 5
  3 neighbor lists, perpetual/occasional/extra = 3 0 0
  (1) pair coul/long, perpetual
      attributes: half, newton on
      pair build: half/bin/newton
      stencil: half/bin/3d/newton
      bin: standard
  (2) pair eam/alloy, perpetual, skip from (1)
      attributes: half, newton on
      pair build: skip
      stencil: none
      bin: none
  (3) pair table, perpetual, skip from (1)
      attributes: half, newton on
      pair build: skip
      stencil: none
      bin: none
Per MPI rank memory allocation (min/avg/max) = 11.65 | 12.36 | 12.43 Mbytes
Step Temp E_pair E_mol TotEng Press 
       0            0   -228997.16            0   -228997.16     31168.99 
     283            0   -231864.62            0   -231864.62   -142.64083 
Loop time of 4.96089 on 52 procs for 283 steps with 17656 atoms

99.8% CPU use with 52 MPI tasks x 1 OpenMP threads

Minimization stats:
  Stopping criterion = linesearch alpha is zero
  Energy initial, next-to-last, final = 
     -228997.162251181  -231864.618959416  -231864.618959416
  Force two-norm initial, final = 6338.3368 0.042342257
  Force max component initial, final = 4465.9253 0.006276081
  Final line search alpha, max atom move = 3.8146973e-06 2.3941349e-08
  Iterations, force evaluations = 283 615

MPI task timing breakdown:
Section |  min time  |  avg time  |  max time  |%varavg| %total
---------------------------------------------------------------
Pair    | 3.7174     | 3.806      | 3.9681     |   3.0 | 76.72
Bond    | 4.1947e-05 | 6.8811e-05 | 0.00010971 |   0.0 |  0.00
Kspace  | 0.84139    | 1.0053     | 1.093      |   5.9 | 20.26
Neigh   | 0.022193   | 0.024059   | 0.026226   |   0.6 |  0.48
Comm    | 0.095835   | 0.098687   | 0.10195    |   0.4 |  1.99
Output  | 0          | 0          | 0          |   0.0 |  0.00
Modify  | 0          | 0          | 0          |   0.0 |  0.00
Other   |            | 0.02674    |            |       |  0.54

Nlocal:        339.538 ave         363 max         318 min
Histogram: 1 1 5 7 20 8 4 1 1 4
Nghost:        5535.29 ave        5707 max        5370 min
Histogram: 16 0 0 0 11 5 2 6 0 12
Neighs:       107731.0 ave      118476 max       97011 min
Histogram: 4 1 4 5 7 17 8 1 1 4

Total # of neighbors = 5602037
Ave neighs/atom = 317.28800
Ave special neighs/atom = 0.0000000
Neighbor list builds = 8
Dangerous builds = 0
reset_atom_ids
Resetting atom IDs ...
PPPM initialization ...
  using 12-bit tables for long-range coulomb (../kspace.cpp:328)
  G vector (1/distance) = 0.29912041
  grid = 40 240 40
  stencil order = 5
  estimated absolute RMS force accuracy = 0.0001537027
  estimated relative force accuracy = 1.0674062e-05
  using single precision MKL FFT
  3d grid and FFT values/proc = 18225 7600
Neighbor list info ...
  update every 1 steps, delay 0 steps, check yes
  max neighbors/atom: 2000, page size: 100000
  master list distance cutoff = 13
  ghost atom cutoff = 13
  binsize = 6.5, bins = 5 52 5
  3 neighbor lists, perpetual/occasional/extra = 3 0 0
  (1) pair coul/long, perpetual
      attributes: half, newton on
      pair build: half/bin/newton
      stencil: half/bin/3d/newton
      bin: standard
  (2) pair eam/alloy, perpetual, skip from (1)
      attributes: half, newton on
      pair build: skip
      stencil: none
      bin: none
  (3) pair table, perpetual, skip from (1)
      attributes: half, newton on
      pair build: skip
      stencil: none
      bin: none
Finding 1-2 1-3 1-4 neighbors ...
  special bond factors lj:    0.0      0.0      0.0     
  special bond factors coul:  0.0      0.0      0.0     
     0 = max # of 1-2 neighbors
     0 = max # of 1-3 neighbors
     0 = max # of 1-4 neighbors
     1 = max # of special neighbors
  special bonds CPU = 0.001 seconds
variable           T     equal   600
velocity           all   create  $T  4111 dist gaussian mom yes rot yes
velocity           all   create  600  4111 dist gaussian mom yes rot yes
fix                nvt   all     nvt   temp  $T  $T  0.1
fix                nvt   all     nvt   temp  600  $T  0.1
fix                nvt   all     nvt   temp  600  600  0.1
run                10000
PPPM initialization ...
  using 12-bit tables for long-range coulomb (../kspace.cpp:328)
  G vector (1/distance) = 0.29912041
  grid = 40 240 40
  stencil order = 5
  estimated absolute RMS force accuracy = 0.0001537027
  estimated relative force accuracy = 1.0674062e-05
  using single precision MKL FFT
  3d grid and FFT values/proc = 18225 7600
Neighbor list info ...
  update every 1 steps, delay 0 steps, check yes
  max neighbors/atom: 2000, page size: 100000
  master list distance cutoff = 13
  ghost atom cutoff = 13
  binsize = 6.5, bins = 5 52 5
  3 neighbor lists, perpetual/occasional/extra = 3 0 0
  (1) pair coul/long, perpetual
      attributes: half, newton on
      pair build: half/bin/newton
      stencil: half/bin/3d/newton
      bin: standard
  (2) pair eam/alloy, perpetual, skip from (1)
      attributes: half, newton on
      pair build: skip
      stencil: none
      bin: none
  (3) pair table, perpetual, skip from (1)
      attributes: half, newton on
      pair build: skip
      stencil: none
      bin: none
Per MPI rank memory allocation (min/avg/max) = 10.53 | 11.22 | 11.31 Mbytes
Step Temp E_pair E_mol TotEng Press 
     283          600   -231864.62            0   -230495.37    5468.5927 
   10283    602.99806   -230479.35            0   -229103.25    27658.195 
Loop time of 71.1021 on 52 procs for 10000 steps with 17656 atoms

Performance: 12.152 ns/day, 1.975 hours/ns, 140.643 timesteps/s
99.8% CPU use with 52 MPI tasks x 1 OpenMP threads

MPI task timing breakdown:
Section |  min time  |  avg time  |  max time  |%varavg| %total
---------------------------------------------------------------
Pair    | 51.921     | 53.414     | 56.018     |  12.3 | 75.12
Bond    | 0.00077874 | 0.0013278  | 0.0020053  |   0.7 |  0.00
Kspace  | 12.988     | 15.471     | 16.836     |  22.1 | 21.76
Neigh   | 0.21936    | 0.24265    | 0.26284    |   1.9 |  0.34
Comm    | 1.3783     | 1.48       | 1.658      |   6.2 |  2.08
Output  | 0.0018131  | 0.0022216  | 0.0054924  |   1.1 |  0.00
Modify  | 0.18211    | 0.35102    | 0.52123    |  20.7 |  0.49
Other   |            | 0.1397     |            |       |  0.20

Nlocal:        339.538 ave         367 max         316 min
Histogram: 1 1 3 14 15 12 2 0 1 3
Nghost:        5534.13 ave        5701 max        5362 min
Histogram: 12 4 0 0 8 9 3 4 0 12
Neighs:       108284.0 ave      119900 max       93114 min
Histogram: 1 1 2 6 5 12 18 3 3 1

Total # of neighbors = 5630785
Ave neighs/atom = 318.91623
Ave special neighs/atom = 0.0000000
Neighbor list builds = 80
Dangerous builds = 0
unfix              nvt
write_data         Xe_relaxed.dat
System init for write_data ...
PPPM initialization ...
  using 12-bit tables for long-range coulomb (../kspace.cpp:328)
  G vector (1/distance) = 0.29912041
  grid = 40 240 40
  stencil order = 5
  estimated absolute RMS force accuracy = 0.0001537027
  estimated relative force accuracy = 1.0674062e-05
  using single precision MKL FFT
  3d grid and FFT values/proc = 18225 7600
Neighbor list info ...
  update every 1 steps, delay 0 steps, check yes
  max neighbors/atom: 2000, page size: 100000
  master list distance cutoff = 13
  ghost atom cutoff = 13
  binsize = 6.5, bins = 5 52 5
  3 neighbor lists, perpetual/occasional/extra = 3 0 0
  (1) pair coul/long, perpetual
      attributes: half, newton on
      pair build: half/bin/newton
      stencil: half/bin/3d/newton
      bin: standard
  (2) pair eam/alloy, perpetual, skip from (1)
      attributes: half, newton on
      pair build: skip
      stencil: none
      bin: none
  (3) pair table, perpetual, skip from (1)
      attributes: half, newton on
      pair build: skip
      stencil: none
      bin: none
next               n
variable           tot    equal   17640+(${n}*4)
variable           tot    equal   17640+(5*4)
shell              add_Xe.sh ${tot}
shell              add_Xe.sh 17660
jump               random_vac.in   loop
clear
OMP_NUM_THREADS environment is not set. Defaulting to 1 thread. (../comm.cpp:94)
  using 1 OpenMP thread(s) per MPI task
units                        metal
dimension                        3
boundary                     p p p
atom_style                   full
atom_modify                  map array

read_data                    add_Xe.dat
Reading data file ...
  orthogonal box = (-0.27717828 -3.4472206 -0.27717828) to (27.617178 331.52722 27.617178)
  2 by 13 by 2 MPI processor grid
  reading atoms ...
  17660 atoms
Finding 1-2 1-3 1-4 neighbors ...
  special bond factors lj:    0.0      0.0      0.0     
  special bond factors coul:  0.0      0.0      0.0     
     0 = max # of 1-2 neighbors
     0 = max # of 1-3 neighbors
     0 = max # of 1-4 neighbors
     1 = max # of special neighbors
  special bonds CPU = 0.001 seconds
  read_data CPU = 0.027 seconds

# randomly create vacancies in the relaxed perfect crystal
set                         type    1      charge   -1.1104
Setting atom values ...
  11760 settings made for charge
set                         type    2      charge    2.2208
Setting atom values ...
  5880 settings made for charge
set                         type    3      charge    0.0
Setting atom values ...
  20 settings made for charge
kspace_style                pppm     1.0e-05
pair_style                  hybrid/overlay  coul/long   11.0  eam/alloy  table  linear  100000  pppm
pair_coeff                  * * coul/long
pair_coeff                  * * eam/alloy CeThUNpPuAmCmO.eam.alloy O Th NULL
pair_coeff                  3 3 table CRG_gas_potentials.lmptab Xe-Xe 11
WARNING: 13 of 1000 force values in table Xe-Xe are inconsistent with -dE/dr.
  Should only be flagged at inflection points (../pair_table.cpp:461)
pair_coeff                  1 3 table CRG_gas_potentials.lmptab Xe-O 11
WARNING: 2 of 1000 force values in table Xe-O are inconsistent with -dE/dr.
  Should only be flagged at inflection points (../pair_table.cpp:461)
pair_coeff                  2 3 table CRG_gas_potentials.lmptab Xe-Th 11
WARNING: 2 of 1000 force values in table Xe-Th are inconsistent with -dE/dr.
  Should only be flagged at inflection points (../pair_table.cpp:461)
neighbor                    2.0  bin
neigh_modify                every  1  delay  0  check  yes

dump               1   all  custom  10000 dump_relax.atom.* id type q x y z
dump_modify        1   element  O Th Xe

min_style          cg
minimize           1.0e-30 1.0e-30 10000 10000
PPPM initialization ...
  using 12-bit tables for long-range coulomb (../kspace.cpp:328)
  G vector (1/distance) = 0.29912011
  grid = 40 240 40
  stencil order = 5
  estimated absolute RMS force accuracy = 0.00015368658
  estimated relative force accuracy = 1.0672942e-05
  using single precision MKL FFT
  3d grid and FFT values/proc = 18225 7600
Neighbor list info ...
  update every 1 steps, delay 0 steps, check yes
  max neighbors/atom: 2000, page size: 100000
  master list distance cutoff = 13
  ghost atom cutoff = 13
  binsize = 6.5, bins = 5 52 5
  3 neighbor lists, perpetual/occasional/extra = 3 0 0
  (1) pair coul/long, perpetual
      attributes: half, newton on
      pair build: half/bin/newton
      stencil: half/bin/3d/newton
      bin: standard
  (2) pair eam/alloy, perpetual, skip from (1)
      attributes: half, newton on
      pair build: skip
      stencil: none
      bin: none
  (3) pair table, perpetual, skip from (1)
      attributes: half, newton on
      pair build: skip
      stencil: none
      bin: none
Per MPI rank memory allocation (min/avg/max) = 11.65 | 12.38 | 12.43 Mbytes
Step Temp E_pair E_mol TotEng Press 
       0            0   -230398.59            0   -230398.59    23123.482 
     349            0   -231866.09            0   -231866.09   -222.61839 
Loop time of 6.714 on 52 procs for 349 steps with 17660 atoms

99.8% CPU use with 52 MPI tasks x 1 OpenMP threads

Minimization stats:
  Stopping criterion = linesearch alpha is zero
  Energy initial, next-to-last, final = 
     -230398.589027644  -231866.088190634  -231866.088190634
  Force two-norm initial, final = 361.83720 0.022240906
  Force max component initial, final = 179.96444 0.0025096157
  Final line search alpha, max atom move = 1.5258789e-05 3.8293696e-08
  Iterations, force evaluations = 349 839

MPI task timing breakdown:
Section |  min time  |  avg time  |  max time  |%varavg| %total
---------------------------------------------------------------
Pair    | 5.0624     | 5.1803     | 5.4012     |   3.5 | 77.16
Bond    | 5.289e-05  | 9.244e-05  | 0.00014647 |   0.0 |  0.00
Kspace  | 1.1158     | 1.3395     | 1.4575     |   6.9 | 19.95
Neigh   | 0.024968   | 0.027138   | 0.029537   |   0.6 |  0.40
Comm    | 0.12698    | 0.13278    | 0.13787    |   0.7 |  1.98
Output  | 0          | 0          | 0          |   0.0 |  0.00
Modify  | 0          | 0          | 0          |   0.0 |  0.00
Other   |            | 0.0341     |            |       |  0.51

Nlocal:        339.615 ave         363 max         317 min
Histogram: 1 1 2 6 27 5 4 2 0 4
Nghost:        5534.00 ave        5702 max        5372 min
Histogram: 16 0 0 1 9 6 4 4 0 12
Neighs:       107775.0 ave      117355 max       97202 min
Histogram: 5 1 2 5 10 12 9 4 0 4

Total # of neighbors = 5604291
Ave neighs/atom = 317.34377
Ave special neighs/atom = 0.0000000
Neighbor list builds = 9
Dangerous builds = 0
reset_atom_ids
Resetting atom IDs ...
PPPM initialization ...
  using 12-bit tables for long-range coulomb (../kspace.cpp:328)
  G vector (1/distance) = 0.29912011
  grid = 40 240 40
  stencil order = 5
  estimated absolute RMS force accuracy = 0.00015368658
  estimated relative force accuracy = 1.0672942e-05
  using single precision MKL FFT
  3d grid and FFT values/proc = 18225 7600
Neighbor list info ...
  update every 1 steps, delay 0 steps, check yes
  max neighbors/atom: 2000, page size: 100000
  master list distance cutoff = 13
  ghost atom cutoff = 13
  binsize = 6.5, bins = 5 52 5
  3 neighbor lists, perpetual/occasional/extra = 3 0 0
  (1) pair coul/long, perpetual
      attributes: half, newton on
      pair build: half/bin/newton
      stencil: half/bin/3d/newton
      bin: standard
  (2) pair eam/alloy, perpetual, skip from (1)
      attributes: half, newton on
      pair build: skip
      stencil: none
      bin: none
  (3) pair table, perpetual, skip from (1)
      attributes: half, newton on
      pair build: skip
      stencil: none
      bin: none
Finding 1-2 1-3 1-4 neighbors ...
  special bond factors lj:    0.0      0.0      0.0     
  special bond factors coul:  0.0      0.0      0.0     
     0 = max # of 1-2 neighbors
     0 = max # of 1-3 neighbors
     0 = max # of 1-4 neighbors
     1 = max # of special neighbors
  special bonds CPU = 0.001 seconds
variable           T     equal   600
velocity           all   create  $T  4111 dist gaussian mom yes rot yes
velocity           all   create  600  4111 dist gaussian mom yes rot yes
fix                nvt   all     nvt   temp  $T  $T  0.1
fix                nvt   all     nvt   temp  600  $T  0.1
fix                nvt   all     nvt   temp  600  600  0.1
run                10000
PPPM initialization ...
  using 12-bit tables for long-range coulomb (../kspace.cpp:328)
  G vector (1/distance) = 0.29912011
  grid = 40 240 40
  stencil order = 5
  estimated absolute RMS force accuracy = 0.00015368658
  estimated relative force accuracy = 1.0672942e-05
  using single precision MKL FFT
  3d grid and FFT values/proc = 18225 7600
Neighbor list info ...
  update every 1 steps, delay 0 steps, check yes
  max neighbors/atom: 2000, page size: 100000
  master list distance cutoff = 13
  ghost atom cutoff = 13
  binsize = 6.5, bins = 5 52 5
  3 neighbor lists, perpetual/occasional/extra = 3 0 0
  (1) pair coul/long, perpetual
      attributes: half, newton on
      pair build: half/bin/newton
      stencil: half/bin/3d/newton
      bin: standard
  (2) pair eam/alloy, perpetual, skip from (1)
      attributes: half, newton on
      pair build: skip
      stencil: none
      bin: none
  (3) pair table, perpetual, skip from (1)
      attributes: half, newton on
      pair build: skip
      stencil: none
      bin: none
Per MPI rank memory allocation (min/avg/max) = 10.53 | 11.23 | 11.31 Mbytes
Step Temp E_pair E_mol TotEng Press 
     349          600   -231866.09            0   -230496.53    5389.8864 
   10349    602.04742   -230488.55            0   -229114.32    26844.502 
Loop time of 71.2829 on 52 procs for 10000 steps with 17660 atoms

Performance: 12.121 ns/day, 1.980 hours/ns, 140.286 timesteps/s
99.8% CPU use with 52 MPI tasks x 1 OpenMP threads

MPI task timing breakdown:
Section |  min time  |  avg time  |  max time  |%varavg| %total
---------------------------------------------------------------
Pair    | 52.027     | 53.395     | 56.017     |  12.5 | 74.91
Bond    | 0.00076725 | 0.0013258  | 0.0017311  |   0.5 |  0.00
Kspace  | 13.106     | 15.663     | 16.924     |  22.4 | 21.97
Neigh   | 0.23516    | 0.25789    | 0.27928    |   2.0 |  0.36
Comm    | 1.3716     | 1.4789     | 1.6796     |   6.2 |  2.07
Output  | 0.0016944  | 0.0020982  | 0.00485    |   1.0 |  0.00
Modify  | 0.17167    | 0.34206    | 0.50121    |  20.4 |  0.48
Other   |            | 0.1419     |            |       |  0.20

Nlocal:        339.615 ave         366 max         314 min
Histogram: 1 1 2 6 21 14 2 1 1 3
Nghost:        5533.92 ave        5701 max        5366 min
Histogram: 13 3 0 0 8 8 4 4 0 12
Neighs:       108314.0 ave      118523 max       93549 min
Histogram: 2 1 2 2 3 14 18 4 2 4

Total # of neighbors = 5632326
Ave neighs/atom = 318.93126
Ave special neighs/atom = 0.0000000
Neighbor list builds = 85
Dangerous builds = 0
unfix              nvt
write_data         Xe_relaxed.dat
System init for write_data ...
PPPM initialization ...
  using 12-bit tables for long-range coulomb (../kspace.cpp:328)
  G vector (1/distance) = 0.29912011
  grid = 40 240 40
  stencil order = 5
  estimated absolute RMS force accuracy = 0.00015368658
  estimated relative force accuracy = 1.0672942e-05
  using single precision MKL FFT
  3d grid and FFT values/proc = 18225 7600
Neighbor list info ...
  update every 1 steps, delay 0 steps, check yes
  max neighbors/atom: 2000, page size: 100000
  master list distance cutoff = 13
  ghost atom cutoff = 13
  binsize = 6.5, bins = 5 52 5
  3 neighbor lists, perpetual/occasional/extra = 3 0 0
  (1) pair coul/long, perpetual
      attributes: half, newton on
      pair build: half/bin/newton
      stencil: half/bin/3d/newton
      bin: standard
  (2) pair eam/alloy, perpetual, skip from (1)
      attributes: half, newton on
      pair build: skip
      stencil: none
      bin: none
  (3) pair table, perpetual, skip from (1)
      attributes: half, newton on
      pair build: skip
      stencil: none
      bin: none
next               n
variable           tot    equal   17640+(${n}*4)
variable           tot    equal   17640+(6*4)
shell              add_Xe.sh ${tot}
shell              add_Xe.sh 17664
jump               random_vac.in   loop
clear
OMP_NUM_THREADS environment is not set. Defaulting to 1 thread. (../comm.cpp:94)
  using 1 OpenMP thread(s) per MPI task
units                        metal
dimension                        3
boundary                     p p p
atom_style                   full
atom_modify                  map array

read_data                    add_Xe.dat
Reading data file ...
  orthogonal box = (-0.27717828 -3.4472206 -0.27717828) to (27.617178 331.52722 27.617178)
  2 by 13 by 2 MPI processor grid
  reading atoms ...
  17664 atoms
Finding 1-2 1-3 1-4 neighbors ...
  special bond factors lj:    0.0      0.0      0.0     
  special bond factors coul:  0.0      0.0      0.0     
     0 = max # of 1-2 neighbors
     0 = max # of 1-3 neighbors
     0 = max # of 1-4 neighbors
     1 = max # of special neighbors
  special bonds CPU = 0.001 seconds
  read_data CPU = 0.028 seconds

# randomly create vacancies in the relaxed perfect crystal
set                         type    1      charge   -1.1104
Setting atom values ...
  11760 settings made for charge
set                         type    2      charge    2.2208
Setting atom values ...
  5880 settings made for charge
set                         type    3      charge    0.0
Setting atom values ...
  24 settings made for charge
kspace_style                pppm     1.0e-05
pair_style                  hybrid/overlay  coul/long   11.0  eam/alloy  table  linear  100000  pppm
pair_coeff                  * * coul/long
pair_coeff                  * * eam/alloy CeThUNpPuAmCmO.eam.alloy O Th NULL
pair_coeff                  3 3 table CRG_gas_potentials.lmptab Xe-Xe 11
WARNING: 13 of 1000 force values in table Xe-Xe are inconsistent with -dE/dr.
  Should only be flagged at inflection points (../pair_table.cpp:461)
pair_coeff                  1 3 table CRG_gas_potentials.lmptab Xe-O 11
WARNING: 2 of 1000 force values in table Xe-O are inconsistent with -dE/dr.
  Should only be flagged at inflection points (../pair_table.cpp:461)
pair_coeff                  2 3 table CRG_gas_potentials.lmptab Xe-Th 11
WARNING: 2 of 1000 force values in table Xe-Th are inconsistent with -dE/dr.
  Should only be flagged at inflection points (../pair_table.cpp:461)
neighbor                    2.0  bin
neigh_modify                every  1  delay  0  check  yes

dump               1   all  custom  10000 dump_relax.atom.* id type q x y z
dump_modify        1   element  O Th Xe

min_style          cg
minimize           1.0e-30 1.0e-30 10000 10000
PPPM initialization ...
  using 12-bit tables for long-range coulomb (../kspace.cpp:328)
  G vector (1/distance) = 0.2991198
  grid = 40 240 40
  stencil order = 5
  estimated absolute RMS force accuracy = 0.00015367046
  estimated relative force accuracy = 1.0671823e-05
  using single precision MKL FFT
  3d grid and FFT values/proc = 18225 7600
Neighbor list info ...
  update every 1 steps, delay 0 steps, check yes
  max neighbors/atom: 2000, page size: 100000
  master list distance cutoff = 13
  ghost atom cutoff = 13
  binsize = 6.5, bins = 5 52 5
  3 neighbor lists, perpetual/occasional/extra = 3 0 0
  (1) pair coul/long, perpetual
      attributes: half, newton on
      pair build: half/bin/newton
      stencil: half/bin/3d/newton
      bin: standard
  (2) pair eam/alloy, perpetual, skip from (1)
      attributes: half, newton on
      pair build: skip
      stencil: none
      bin: none
  (3) pair table, perpetual, skip from (1)
      attributes: half, newton on
      pair build: skip
      stencil: none
      bin: none
Per MPI rank memory allocation (min/avg/max) = 11.65 | 12.36 | 12.43 Mbytes
Step Temp E_pair E_mol TotEng Press 
       0            0    -229539.8            0    -229539.8    27938.111 
     320            0   -231866.83            0   -231866.83   -224.27345 
Loop time of 5.22509 on 52 procs for 320 steps with 17664 atoms

99.8% CPU use with 52 MPI tasks x 1 OpenMP threads

Minimization stats:
  Stopping criterion = linesearch alpha is zero
  Energy initial, next-to-last, final = 
     -229539.795651562  -231866.830712526  -231866.830712526
  Force two-norm initial, final = 4218.2546 0.026912462
  Force max component initial, final = 2902.1277 0.0036618714
  Final line search alpha, max atom move = 1.5258789e-05 5.5875723e-08
  Iterations, force evaluations = 320 649

MPI task timing breakdown:
Section |  min time  |  avg time  |  max time  |%varavg| %total
---------------------------------------------------------------
Pair    | 3.9046     | 4.0279     | 4.2072     |   3.7 | 77.09
Bond    | 3.8589e-05 | 7.5685e-05 | 0.00013023 |   0.0 |  0.00
Kspace  | 0.85286    | 1.0344     | 1.1567     |   7.3 | 19.80
Neigh   | 0.027221   | 0.030146   | 0.032662   |   0.6 |  0.58
Comm    | 0.099877   | 0.10418    | 0.1075     |   0.5 |  1.99
Output  | 0          | 0          | 0          |   0.0 |  0.00
Modify  | 0          | 0          | 0          |   0.0 |  0.00
Other   |            | 0.02842    |            |       |  0.54

Nlocal:        339.692 ave         363 max         323 min
Histogram: 1 4 6 22 9 1 5 0 0 4
Nghost:        5536.13 ave        5702 max        5368 min
Histogram: 14 2 0 0 8 8 3 5 0 12
Neighs:       107816.0 ave      117238 max       95710 min
Histogram: 3 1 1 6 4 15 11 6 1 4

Total # of neighbors = 5606419
Ave neighs/atom = 317.39238
Ave special neighs/atom = 0.0000000
Neighbor list builds = 10
Dangerous builds = 0
reset_atom_ids
Resetting atom IDs ...
PPPM initialization ...
  using 12-bit tables for long-range coulomb (../kspace.cpp:328)
  G vector (1/distance) = 0.2991198
  grid = 40 240 40
  stencil order = 5
  estimated absolute RMS force accuracy = 0.00015367046
  estimated relative force accuracy = 1.0671823e-05
  using single precision MKL FFT
  3d grid and FFT values/proc = 18225 7600
Neighbor list info ...
  update every 1 steps, delay 0 steps, check yes
  max neighbors/atom: 2000, page size: 100000
  master list distance cutoff = 13
  ghost atom cutoff = 13
  binsize = 6.5, bins = 5 52 5
  3 neighbor lists, perpetual/occasional/extra = 3 0 0
  (1) pair coul/long, perpetual
      attributes: half, newton on
      pair build: half/bin/newton
      stencil: half/bin/3d/newton
      bin: standard
  (2) pair eam/alloy, perpetual, skip from (1)
      attributes: half, newton on
      pair build: skip
      stencil: none
      bin: none
  (3) pair table, perpetual, skip from (1)
      attributes: half, newton on
      pair build: skip
      stencil: none
      bin: none
Finding 1-2 1-3 1-4 neighbors ...
  special bond factors lj:    0.0      0.0      0.0     
  special bond factors coul:  0.0      0.0      0.0     
     0 = max # of 1-2 neighbors
     0 = max # of 1-3 neighbors
     0 = max # of 1-4 neighbors
     1 = max # of special neighbors
  special bonds CPU = 0.001 seconds
variable           T     equal   600
velocity           all   create  $T  4111 dist gaussian mom yes rot yes
velocity           all   create  600  4111 dist gaussian mom yes rot yes
fix                nvt   all     nvt   temp  $T  $T  0.1
fix                nvt   all     nvt   temp  600  $T  0.1
fix                nvt   all     nvt   temp  600  600  0.1
run                10000
PPPM initialization ...
  using 12-bit tables for long-range coulomb (../kspace.cpp:328)
  G vector (1/distance) = 0.2991198
  grid = 40 240 40
  stencil order = 5
  estimated absolute RMS force accuracy = 0.00015367046
  estimated relative force accuracy = 1.0671823e-05
  using single precision MKL FFT
  3d grid and FFT values/proc = 18225 7600
Neighbor list info ...
  update every 1 steps, delay 0 steps, check yes
  max neighbors/atom: 2000, page size: 100000
  master list distance cutoff = 13
  ghost atom cutoff = 13
  binsize = 6.5, bins = 5 52 5
  3 neighbor lists, perpetual/occasional/extra = 3 0 0
  (1) pair coul/long, perpetual
      attributes: half, newton on
      pair build: half/bin/newton
      stencil: half/bin/3d/newton
      bin: standard
  (2) pair eam/alloy, perpetual, skip from (1)
      attributes: half, newton on
      pair build: skip
      stencil: none
      bin: none
  (3) pair table, perpetual, skip from (1)
      attributes: half, newton on
      pair build: skip
      stencil: none
      bin: none
Per MPI rank memory allocation (min/avg/max) = 10.52 | 11.24 | 11.30 Mbytes
Step Temp E_pair E_mol TotEng Press 
     320          600   -231866.83            0   -230496.96    5389.5027 
   10320    602.91263   -230486.44            0   -229109.92    27497.688 
Loop time of 71.3703 on 52 procs for 10000 steps with 17664 atoms

Performance: 12.106 ns/day, 1.983 hours/ns, 140.114 timesteps/s
99.8% CPU use with 52 MPI tasks x 1 OpenMP threads

MPI task timing breakdown:
Section |  min time  |  avg time  |  max time  |%varavg| %total
---------------------------------------------------------------
Pair    | 52.164     | 53.561     | 56.323     |  13.1 | 75.05
Bond    | 0.00079248 | 0.0013148  | 0.0018781  |   0.6 |  0.00
Kspace  | 12.978     | 15.62      | 16.922     |  23.8 | 21.89
Neigh   | 0.21743    | 0.24035    | 0.2596     |   1.9 |  0.34
Comm    | 1.3797     | 1.4749     | 1.6769     |   6.4 |  2.07
Output  | 0.0016972  | 0.0021442  | 0.0074871  |   1.7 |  0.00
Modify  | 0.18121    | 0.33007    | 0.49328    |  19.9 |  0.46
Other   |            | 0.1405     |            |       |  0.20

Nlocal:        339.692 ave         372 max         324 min
Histogram: 4 6 17 12 7 1 2 2 0 1
Nghost:        5529.50 ave        5703 max        5367 min
Histogram: 14 2 1 3 5 11 0 4 0 12
Neighs:       108359.0 ave      121185 max       97492 min
Histogram: 4 2 5 4 15 13 5 1 2 1

Total # of neighbors = 5634660
Ave neighs/atom = 318.99117
Ave special neighs/atom = 0.0000000
Neighbor list builds = 79
Dangerous builds = 0
unfix              nvt
write_data         Xe_relaxed.dat
System init for write_data ...
PPPM initialization ...
  using 12-bit tables for long-range coulomb (../kspace.cpp:328)
  G vector (1/distance) = 0.2991198
  grid = 40 240 40
  stencil order = 5
  estimated absolute RMS force accuracy = 0.00015367046
  estimated relative force accuracy = 1.0671823e-05
  using single precision MKL FFT
  3d grid and FFT values/proc = 18225 7600
Neighbor list info ...
  update every 1 steps, delay 0 steps, check yes
  max neighbors/atom: 2000, page size: 100000
  master list distance cutoff = 13
  ghost atom cutoff = 13
  binsize = 6.5, bins = 5 52 5
  3 neighbor lists, perpetual/occasional/extra = 3 0 0
  (1) pair coul/long, perpetual
      attributes: half, newton on
      pair build: half/bin/newton
      stencil: half/bin/3d/newton
      bin: standard
  (2) pair eam/alloy, perpetual, skip from (1)
      attributes: half, newton on
      pair build: skip
      stencil: none
      bin: none
  (3) pair table, perpetual, skip from (1)
      attributes: half, newton on
      pair build: skip
      stencil: none
      bin: none
next               n
variable           tot    equal   17640+(${n}*4)
variable           tot    equal   17640+(7*4)
shell              add_Xe.sh ${tot}
shell              add_Xe.sh 17668
jump               random_vac.in   loop
clear
OMP_NUM_THREADS environment is not set. Defaulting to 1 thread. (../comm.cpp:94)
  using 1 OpenMP thread(s) per MPI task
units                        metal
dimension                        3
boundary                     p p p
atom_style                   full
atom_modify                  map array

read_data                    add_Xe.dat
Reading data file ...
  orthogonal box = (-0.27717828 -3.4472206 -0.27717828) to (27.617178 331.52722 27.617178)
  2 by 13 by 2 MPI processor grid
  reading atoms ...
  17668 atoms
Finding 1-2 1-3 1-4 neighbors ...
  special bond factors lj:    0.0      0.0      0.0     
  special bond factors coul:  0.0      0.0      0.0     
     0 = max # of 1-2 neighbors
     0 = max # of 1-3 neighbors
     0 = max # of 1-4 neighbors
     1 = max # of special neighbors
  special bonds CPU = 0.001 seconds
  read_data CPU = 0.028 seconds

# randomly create vacancies in the relaxed perfect crystal
set                         type    1      charge   -1.1104
Setting atom values ...
  11760 settings made for charge
set                         type    2      charge    2.2208
Setting atom values ...
  5880 settings made for charge
set                         type    3      charge    0.0
Setting atom values ...
  28 settings made for charge
kspace_style                pppm     1.0e-05
pair_style                  hybrid/overlay  coul/long   11.0  eam/alloy  table  linear  100000  pppm
pair_coeff                  * * coul/long
pair_coeff                  * * eam/alloy CeThUNpPuAmCmO.eam.alloy O Th NULL
pair_coeff                  3 3 table CRG_gas_potentials.lmptab Xe-Xe 11
WARNING: 13 of 1000 force values in table Xe-Xe are inconsistent with -dE/dr.
  Should only be flagged at inflection points (../pair_table.cpp:461)
pair_coeff                  1 3 table CRG_gas_potentials.lmptab Xe-O 11
WARNING: 2 of 1000 force values in table Xe-O are inconsistent with -dE/dr.
  Should only be flagged at inflection points (../pair_table.cpp:461)
pair_coeff                  2 3 table CRG_gas_potentials.lmptab Xe-Th 11
WARNING: 2 of 1000 force values in table Xe-Th are inconsistent with -dE/dr.
  Should only be flagged at inflection points (../pair_table.cpp:461)
neighbor                    2.0  bin
neigh_modify                every  1  delay  0  check  yes

dump               1   all  custom  10000 dump_relax.atom.* id type q x y z
dump_modify        1   element  O Th Xe

min_style          cg
minimize           1.0e-30 1.0e-30 10000 10000
PPPM initialization ...
  using 12-bit tables for long-range coulomb (../kspace.cpp:328)
  G vector (1/distance) = 0.29911949
  grid = 40 240 40
  stencil order = 5
  estimated absolute RMS force accuracy = 0.00015365435
  estimated relative force accuracy = 1.0670704e-05
  using single precision MKL FFT
  3d grid and FFT values/proc = 18225 7600
Neighbor list info ...
  update every 1 steps, delay 0 steps, check yes
  max neighbors/atom: 2000, page size: 100000
  master list distance cutoff = 13
  ghost atom cutoff = 13
  binsize = 6.5, bins = 5 52 5
  3 neighbor lists, perpetual/occasional/extra = 3 0 0
  (1) pair coul/long, perpetual
      attributes: half, newton on
      pair build: half/bin/newton
      stencil: half/bin/3d/newton
      bin: standard
  (2) pair eam/alloy, perpetual, skip from (1)
      attributes: half, newton on
      pair build: skip
      stencil: none
      bin: none
  (3) pair table, perpetual, skip from (1)
      attributes: half, newton on
      pair build: skip
      stencil: none
      bin: none
Per MPI rank memory allocation (min/avg/max) = 11.65 | 12.35 | 12.43 Mbytes
Step Temp E_pair E_mol TotEng Press 
       0            0   -229108.32            0   -229108.32    31933.562 
     327            0   -231867.69            0   -231867.69   -201.39216 
Loop time of 5.70319 on 52 procs for 327 steps with 17668 atoms

99.8% CPU use with 52 MPI tasks x 1 OpenMP threads

Minimization stats:
  Stopping criterion = linesearch alpha is zero
  Energy initial, next-to-last, final = 
     -229108.321541748  -231867.688068645  -231867.688068645
  Force two-norm initial, final = 5111.5854 0.032053205
  Force max component initial, final = 3189.5183 0.0053860697
  Final line search alpha, max atom move = 7.6293945e-06 4.1092450e-08
  Iterations, force evaluations = 327 700

MPI task timing breakdown:
Section |  min time  |  avg time  |  max time  |%varavg| %total
---------------------------------------------------------------
Pair    | 4.2286     | 4.3522     | 4.5621     |   3.8 | 76.31
Bond    | 4.7515e-05 | 8.0166e-05 | 0.00012039 |   0.0 |  0.00
Kspace  | 0.95648    | 1.1701     | 1.2932     |   7.4 | 20.52
Neigh   | 0.033218   | 0.036147   | 0.039675   |   0.8 |  0.63
Comm    | 0.10977    | 0.11307    | 0.11624    |   0.5 |  1.98
Output  | 0          | 0          | 0          |   0.0 |  0.00
Modify  | 0          | 0          | 0          |   0.0 |  0.00
Other   |            | 0.03161    |            |       |  0.55

Nlocal:        339.769 ave         365 max         323 min
Histogram: 3 4 4 22 7 5 3 0 1 3
Nghost:        5539.58 ave        5702 max        5372 min
Histogram: 15 1 0 0 8 8 1 7 0 12
Neighs:       107858.0 ave      117367 max       96346 min
Histogram: 3 0 3 6 5 13 12 4 3 3

Total # of neighbors = 5608620
Ave neighs/atom = 317.44510
Ave special neighs/atom = 0.0000000
Neighbor list builds = 12
Dangerous builds = 0
reset_atom_ids
Resetting atom IDs ...
PPPM initialization ...
  using 12-bit tables for long-range coulomb (../kspace.cpp:328)
  G vector (1/distance) = 0.29911949
  grid = 40 240 40
  stencil order = 5
  estimated absolute RMS force accuracy = 0.00015365435
  estimated relative force accuracy = 1.0670704e-05
  using single precision MKL FFT
  3d grid and FFT values/proc = 18225 7600
Neighbor list info ...
  update every 1 steps, delay 0 steps, check yes
  max neighbors/atom: 2000, page size: 100000
  master list distance cutoff = 13
  ghost atom cutoff = 13
  binsize = 6.5, bins = 5 52 5
  3 neighbor lists, perpetual/occasional/extra = 3 0 0
  (1) pair coul/long, perpetual
      attributes: half, newton on
      pair build: half/bin/newton
      stencil: half/bin/3d/newton
      bin: standard
  (2) pair eam/alloy, perpetual, skip from (1)
      attributes: half, newton on
      pair build: skip
      stencil: none
      bin: none
  (3) pair table, perpetual, skip from (1)
      attributes: half, newton on
      pair build: skip
      stencil: none
      bin: none
Finding 1-2 1-3 1-4 neighbors ...
  special bond factors lj:    0.0      0.0      0.0     
  special bond factors coul:  0.0      0.0      0.0     
     0 = max # of 1-2 neighbors
     0 = max # of 1-3 neighbors
     0 = max # of 1-4 neighbors
     1 = max # of special neighbors
  special bonds CPU = 0.001 seconds
variable           T     equal   600
velocity           all   create  $T  4111 dist gaussian mom yes rot yes
velocity           all   create  600  4111 dist gaussian mom yes rot yes
fix                nvt   all     nvt   temp  $T  $T  0.1
fix                nvt   all     nvt   temp  600  $T  0.1
fix                nvt   all     nvt   temp  600  600  0.1
run                10000
PPPM initialization ...
  using 12-bit tables for long-range coulomb (../kspace.cpp:328)
  G vector (1/distance) = 0.29911949
  grid = 40 240 40
  stencil order = 5
  estimated absolute RMS force accuracy = 0.00015365435
  estimated relative force accuracy = 1.0670704e-05
  using single precision MKL FFT
  3d grid and FFT values/proc = 18225 7600
Neighbor list info ...
  update every 1 steps, delay 0 steps, check yes
  max neighbors/atom: 2000, page size: 100000
  master list distance cutoff = 13
  ghost atom cutoff = 13
  binsize = 6.5, bins = 5 52 5
  3 neighbor lists, perpetual/occasional/extra = 3 0 0
  (1) pair coul/long, perpetual
      attributes: half, newton on
      pair build: half/bin/newton
      stencil: half/bin/3d/newton
      bin: standard
  (2) pair eam/alloy, perpetual, skip from (1)
      attributes: half, newton on
      pair build: skip
      stencil: none
      bin: none
  (3) pair table, perpetual, skip from (1)
      attributes: half, newton on
      pair build: skip
      stencil: none
      bin: none
Per MPI rank memory allocation (min/avg/max) = 10.52 | 11.23 | 11.30 Mbytes
Step Temp E_pair E_mol TotEng Press 
     327          600   -231867.69            0    -230497.5    5413.6553 
   10327    604.48059   -230488.65            0   -229108.23    27175.634 
Loop time of 71.6092 on 52 procs for 10000 steps with 17668 atoms

Performance: 12.065 ns/day, 1.989 hours/ns, 139.647 timesteps/s
99.8% CPU use with 52 MPI tasks x 1 OpenMP threads

MPI task timing breakdown:
Section |  min time  |  avg time  |  max time  |%varavg| %total
---------------------------------------------------------------
Pair    | 52.158     | 53.63      | 56.395     |  13.1 | 74.89
Bond    | 0.0008309  | 0.0012878  | 0.0017772  |   0.6 |  0.00
Kspace  | 13.064     | 15.746     | 17.076     |  23.9 | 21.99
Neigh   | 0.22251    | 0.24334    | 0.26377    |   1.9 |  0.34
Comm    | 1.3794     | 1.4831     | 1.7141     |   6.6 |  2.07
Output  | 0.0015181  | 0.0019269  | 0.0047347  |   1.0 |  0.00
Modify  | 0.1861     | 0.35429    | 0.52211    |  20.4 |  0.49
Other   |            | 0.1486     |            |       |  0.21

Nlocal:        339.769 ave         367 max         314 min
Histogram: 1 1 1 10 20 11 4 0 1 3
Nghost:        5537.35 ave        5701 max        5373 min
Histogram: 15 1 0 1 7 8 4 4 0 12
Neighs:       108409.0 ave      119950 max       94778 min
Histogram: 2 2 2 4 5 17 14 2 2 2

Total # of neighbors = 5637282
Ave neighs/atom = 319.06735
Ave special neighs/atom = 0.0000000
Neighbor list builds = 80
Dangerous builds = 0
unfix              nvt
write_data         Xe_relaxed.dat
System init for write_data ...
PPPM initialization ...
  using 12-bit tables for long-range coulomb (../kspace.cpp:328)
  G vector (1/distance) = 0.29911949
  grid = 40 240 40
  stencil order = 5
  estimated absolute RMS force accuracy = 0.00015365435
  estimated relative force accuracy = 1.0670704e-05
  using single precision MKL FFT
  3d grid and FFT values/proc = 18225 7600
Neighbor list info ...
  update every 1 steps, delay 0 steps, check yes
  max neighbors/atom: 2000, page size: 100000
  master list distance cutoff = 13
  ghost atom cutoff = 13
  binsize = 6.5, bins = 5 52 5
  3 neighbor lists, perpetual/occasional/extra = 3 0 0
  (1) pair coul/long, perpetual
      attributes: half, newton on
      pair build: half/bin/newton
      stencil: half/bin/3d/newton
      bin: standard
  (2) pair eam/alloy, perpetual, skip from (1)
      attributes: half, newton on
      pair build: skip
      stencil: none
      bin: none
  (3) pair table, perpetual, skip from (1)
      attributes: half, newton on
      pair build: skip
      stencil: none
      bin: none
next               n
variable           tot    equal   17640+(${n}*4)
variable           tot    equal   17640+(8*4)
shell              add_Xe.sh ${tot}
shell              add_Xe.sh 17672
jump               random_vac.in   loop
clear
OMP_NUM_THREADS environment is not set. Defaulting to 1 thread. (../comm.cpp:94)
  using 1 OpenMP thread(s) per MPI task
units                        metal
dimension                        3
boundary                     p p p
atom_style                   full
atom_modify                  map array

read_data                    add_Xe.dat
Reading data file ...
  orthogonal box = (-0.27717828 -3.4472206 -0.27717828) to (27.617178 331.52722 27.617178)
  2 by 13 by 2 MPI processor grid
  reading atoms ...
  17672 atoms
Finding 1-2 1-3 1-4 neighbors ...
  special bond factors lj:    0.0      0.0      0.0     
  special bond factors coul:  0.0      0.0      0.0     
     0 = max # of 1-2 neighbors
     0 = max # of 1-3 neighbors
     0 = max # of 1-4 neighbors
     1 = max # of special neighbors
  special bonds CPU = 0.001 seconds
  read_data CPU = 0.027 seconds

# randomly create vacancies in the relaxed perfect crystal
set                         type    1      charge   -1.1104
Setting atom values ...
  11760 settings made for charge
set                         type    2      charge    2.2208
Setting atom values ...
  5880 settings made for charge
set                         type    3      charge    0.0
Setting atom values ...
  32 settings made for charge
kspace_style                pppm     1.0e-05
pair_style                  hybrid/overlay  coul/long   11.0  eam/alloy  table  linear  100000  pppm
pair_coeff                  * * coul/long
pair_coeff                  * * eam/alloy CeThUNpPuAmCmO.eam.alloy O Th NULL
pair_coeff                  3 3 table CRG_gas_potentials.lmptab Xe-Xe 11
WARNING: 13 of 1000 force values in table Xe-Xe are inconsistent with -dE/dr.
  Should only be flagged at inflection points (../pair_table.cpp:461)
pair_coeff                  1 3 table CRG_gas_potentials.lmptab Xe-O 11
WARNING: 2 of 1000 force values in table Xe-O are inconsistent with -dE/dr.
[...]
  read_data CPU = 0.028 seconds

# randomly create vacancies in the relaxed perfect crystal
set                         type    1      charge   -1.1104
Setting atom values ...
  11760 settings made for charge
set                         type    2      charge    2.2208
Setting atom values ...
  5880 settings made for charge
set                         type    3      charge    0.0
Setting atom values ...
  56 settings made for charge
kspace_style                pppm     1.0e-05
pair_style                  hybrid/overlay  coul/long   11.0  eam/alloy  table  linear  100000  pppm
pair_coeff                  * * coul/long
pair_coeff                  * * eam/alloy CeThUNpPuAmCmO.eam.alloy O Th NULL
pair_coeff                  3 3 table CRG_gas_potentials.lmptab Xe-Xe 11
WARNING: 13 of 1000 force values in table Xe-Xe are inconsistent with -dE/dr.
  Should only be flagged at inflection points (../pair_table.cpp:461)
pair_coeff                  1 3 table CRG_gas_potentials.lmptab Xe-O 11
WARNING: 2 of 1000 force values in table Xe-O are inconsistent with -dE/dr.
  Should only be flagged at inflection points (../pair_table.cpp:461)
pair_coeff                  2 3 table CRG_gas_potentials.lmptab Xe-Th 11
WARNING: 2 of 1000 force values in table Xe-Th are inconsistent with -dE/dr.
  Should only be flagged at inflection points (../pair_table.cpp:461)
neighbor                    2.0  bin
neigh_modify                every  1  delay  0  check  yes

dump               1   all  custom  10000 dump_relax.atom.* id type q x y z
dump_modify        1   element  O Th Xe

min_style          cg
minimize           1.0e-30 1.0e-30 10000 10000
PPPM initialization ...
  using 12-bit tables for long-range coulomb (../kspace.cpp:328)
  G vector (1/distance) = 0.29911733
  grid = 40 240 40
  stencil order = 5
  estimated absolute RMS force accuracy = 0.00015354175
  estimated relative force accuracy = 1.0662884e-05
  using single precision MKL FFT
  3d grid and FFT values/proc = 18225 7600
Neighbor list info ...
  update every 1 steps, delay 0 steps, check yes
  max neighbors/atom: 2000, page size: 100000
  master list distance cutoff = 13
  ghost atom cutoff = 13
  binsize = 6.5, bins = 5 52 5
  3 neighbor lists, perpetual/occasional/extra = 3 0 0
  (1) pair coul/long, perpetual
      attributes: half, newton on
      pair build: half/bin/newton
      stencil: half/bin/3d/newton
      bin: standard
  (2) pair eam/alloy, perpetual, skip from (1)
      attributes: half, newton on
      pair build: skip
      stencil: none
      bin: none
  (3) pair table, perpetual, skip from (1)
      attributes: half, newton on
      pair build: skip
      stencil: none
      bin: none
Per MPI rank memory allocation (min/avg/max) = 11.66 | 12.37 | 12.43 Mbytes
Step Temp E_pair E_mol TotEng Press 
       0            0   -226517.27            0   -226517.27    44604.886 
     320            0   -231864.95            0   -231864.95    608.99571 
Loop time of 5.32962 on 52 procs for 320 steps with 17696 atoms

99.8% CPU use with 52 MPI tasks x 1 OpenMP threads

Minimization stats:
  Stopping criterion = linesearch alpha is zero
  Energy initial, next-to-last, final = 
     -226517.271835424   -231864.94922501   -231864.94922501
  Force two-norm initial, final = 12760.477 0.029307376
  Force max component initial, final = 6064.8283 0.006345858
  Final line search alpha, max atom move = 7.6293945e-06 4.8415054e-08
  Iterations, force evaluations = 320 653

MPI task timing breakdown:
Section |  min time  |  avg time  |  max time  |%varavg| %total
---------------------------------------------------------------
Pair    | 3.9819     | 4.0903     | 4.2696     |   3.8 | 76.75
Bond    | 5.2583e-05 | 7.5313e-05 | 0.00013024 |   0.0 |  0.00
Kspace  | 0.87797    | 1.0606     | 1.1672     |   7.5 | 19.90
Neigh   | 0.040055   | 0.042674   | 0.04647    |   0.7 |  0.80
Comm    | 0.10262    | 0.10629    | 0.11005    |   0.5 |  1.99
Output  | 0          | 0          | 0          |   0.0 |  0.00
Modify  | 0          | 0          | 0          |   0.0 |  0.00
Other   |            | 0.02966    |            |       |  0.56

Nlocal:        340.308 ave         363 max         323 min
Histogram: 1 1 10 18 9 1 8 0 0 4
Nghost:        5543.65 ave        5702 max        5385 min
Histogram: 14 2 0 0 7 9 3 5 0 12
Neighs:       108149.0 ave      117209 max       99000 min
Histogram: 3 1 4 8 7 14 6 5 0 4

Total # of neighbors = 5623766
Ave neighs/atom = 317.79871
Ave special neighs/atom = 0.0000000
Neighbor list builds = 14
Dangerous builds = 0
reset_atom_ids
Resetting atom IDs ...
PPPM initialization ...
  using 12-bit tables for long-range coulomb (../kspace.cpp:328)
  G vector (1/distance) = 0.29911733
  grid = 40 240 40
  stencil order = 5
  estimated absolute RMS force accuracy = 0.00015354175
  estimated relative force accuracy = 1.0662884e-05
  using single precision MKL FFT
  3d grid and FFT values/proc = 18225 7600
Neighbor list info ...
  update every 1 steps, delay 0 steps, check yes
  max neighbors/atom: 2000, page size: 100000
  master list distance cutoff = 13
  ghost atom cutoff = 13
  binsize = 6.5, bins = 5 52 5
  3 neighbor lists, perpetual/occasional/extra = 3 0 0
  (1) pair coul/long, perpetual
      attributes: half, newton on
      pair build: half/bin/newton
      stencil: half/bin/3d/newton
      bin: standard
  (2) pair eam/alloy, perpetual, skip from (1)
      attributes: half, newton on
      pair build: skip
      stencil: none
      bin: none
  (3) pair table, perpetual, skip from (1)
      attributes: half, newton on
      pair build: skip
      stencil: none
      bin: none
Finding 1-2 1-3 1-4 neighbors ...
  special bond factors lj:    0.0      0.0      0.0     
  special bond factors coul:  0.0      0.0      0.0     
     0 = max # of 1-2 neighbors
     0 = max # of 1-3 neighbors
     0 = max # of 1-4 neighbors
     1 = max # of special neighbors
  special bonds CPU = 0.001 seconds
variable           T     equal   600
velocity           all   create  $T  4111 dist gaussian mom yes rot yes
velocity           all   create  600  4111 dist gaussian mom yes rot yes
fix                nvt   all     nvt   temp  $T  $T  0.1
fix                nvt   all     nvt   temp  600  $T  0.1
fix                nvt   all     nvt   temp  600  600  0.1
run                10000
PPPM initialization ...
  using 12-bit tables for long-range coulomb (../kspace.cpp:328)
  G vector (1/distance) = 0.29911733
  grid = 40 240 40
  stencil order = 5
  estimated absolute RMS force accuracy = 0.00015354175
  estimated relative force accuracy = 1.0662884e-05
  using single precision MKL FFT
  3d grid and FFT values/proc = 18225 7600
Neighbor list info ...
  update every 1 steps, delay 0 steps, check yes
  max neighbors/atom: 2000, page size: 100000
  master list distance cutoff = 13
  ghost atom cutoff = 13
  binsize = 6.5, bins = 5 52 5
  3 neighbor lists, perpetual/occasional/extra = 3 0 0
  (1) pair coul/long, perpetual
      attributes: half, newton on
      pair build: half/bin/newton
      stencil: half/bin/3d/newton
      bin: standard
  (2) pair eam/alloy, perpetual, skip from (1)
      attributes: half, newton on
      pair build: skip
      stencil: none
      bin: none
  (3) pair table, perpetual, skip from (1)
      attributes: half, newton on
      pair build: skip
      stencil: none
      bin: none
Per MPI rank memory allocation (min/avg/max) = 10.91 | 11.26 | 11.30 Mbytes
Step Temp E_pair E_mol TotEng Press 
     320          600   -231864.95            0   -230492.59    6232.9423 
   10320    604.19829   -230484.93            0   -229102.97    27911.044 
Loop time of 71.3665 on 52 procs for 10000 steps with 17696 atoms

Performance: 12.107 ns/day, 1.982 hours/ns, 140.122 timesteps/s
99.8% CPU use with 52 MPI tasks x 1 OpenMP threads

MPI task timing breakdown:
Section |  min time  |  avg time  |  max time  |%varavg| %total
---------------------------------------------------------------
Pair    | 52.071     | 53.621     | 56.244     |  12.8 | 75.14
Bond    | 0.00082301 | 0.0013383  | 0.0018815  |   0.6 |  0.00
Kspace  | 13.033     | 15.549     | 16.955     |  23.4 | 21.79
Neigh   | 0.18872    | 0.20465    | 0.22181    |   1.6 |  0.29
Comm    | 1.3735     | 1.4834     | 1.6987     |   6.2 |  2.08
Output  | 0.0016189  | 0.0020269  | 0.0051652  |   1.1 |  0.00
Modify  | 0.19155    | 0.35445    | 0.52635    |  20.2 |  0.50
Other   |            | 0.1501     |            |       |  0.21

Nlocal:        340.308 ave         369 max         322 min
Histogram: 3 0 15 10 16 4 0 1 2 1
Nghost:        5540.10 ave        5701 max        5384 min
Histogram: 11 5 0 3 5 11 1 4 0 12
Neighs:       108716.0 ave      119625 max       96220 min
Histogram: 2 3 1 3 8 14 15 2 1 3

Total # of neighbors = 5653228
Ave neighs/atom = 319.46361
Ave special neighs/atom = 0.0000000
Neighbor list builds = 67
Dangerous builds = 0
unfix              nvt
write_data         Xe_relaxed.dat
System init for write_data ...
PPPM initialization ...
  using 12-bit tables for long-range coulomb (../kspace.cpp:328)
  G vector (1/distance) = 0.29911733
  grid = 40 240 40
  stencil order = 5
  estimated absolute RMS force accuracy = 0.00015354175
  estimated relative force accuracy = 1.0662884e-05
  using single precision MKL FFT
  3d grid and FFT values/proc = 18225 7600
Neighbor list info ...
  update every 1 steps, delay 0 steps, check yes
  max neighbors/atom: 2000, page size: 100000
  master list distance cutoff = 13
  ghost atom cutoff = 13
  binsize = 6.5, bins = 5 52 5
  3 neighbor lists, perpetual/occasional/extra = 3 0 0
  (1) pair coul/long, perpetual
      attributes: half, newton on
      pair build: half/bin/newton
      stencil: half/bin/3d/newton
      bin: standard
  (2) pair eam/alloy, perpetual, skip from (1)
      attributes: half, newton on
      pair build: skip
      stencil: none
      bin: none
  (3) pair table, perpetual, skip from (1)
      attributes: half, newton on
      pair build: skip
      stencil: none
      bin: none
next               n
variable           tot    equal   17640+(${n}*4)
variable           tot    equal   17640+(15*4)
shell              add_Xe.sh ${tot}
shell              add_Xe.sh 17700
jump               random_vac.in   loop
clear
OMP_NUM_THREADS environment is not set. Defaulting to 1 thread. (../comm.cpp:94)
  using 1 OpenMP thread(s) per MPI task
units                        metal
dimension                        3
boundary                     p p p
atom_style                   full
atom_modify                  map array

read_data                    add_Xe.dat
Reading data file ...
  orthogonal box = (-0.27717828 -3.4472206 -0.27717828) to (27.617178 331.52722 27.617178)
  2 by 13 by 2 MPI processor grid
  reading atoms ...
  17700 atoms
Finding 1-2 1-3 1-4 neighbors ...
  special bond factors lj:    0.0      0.0      0.0     
  special bond factors coul:  0.0      0.0      0.0     
     0 = max # of 1-2 neighbors
     0 = max # of 1-3 neighbors
     0 = max # of 1-4 neighbors
     1 = max # of special neighbors
  special bonds CPU = 0.001 seconds
  read_data CPU = 0.028 seconds

# randomly create vacancies in the relaxed perfect crystal
set                         type    1      charge   -1.1104
Setting atom values ...
  11760 settings made for charge
set                         type    2      charge    2.2208
Setting atom values ...
  5880 settings made for charge
set                         type    3      charge    0.0
Setting atom values ...
  60 settings made for charge
kspace_style                pppm     1.0e-05
pair_style                  hybrid/overlay  coul/long   11.0  eam/alloy  table  linear  100000  pppm
pair_coeff                  * * coul/long
pair_coeff                  * * eam/alloy CeThUNpPuAmCmO.eam.alloy O Th NULL
pair_coeff                  3 3 table CRG_gas_potentials.lmptab Xe-Xe 11
WARNING: 13 of 1000 force values in table Xe-Xe are inconsistent with -dE/dr.
  Should only be flagged at inflection points (../pair_table.cpp:461)
pair_coeff                  1 3 table CRG_gas_potentials.lmptab Xe-O 11
WARNING: 2 of 1000 force values in table Xe-O are inconsistent with -dE/dr.
  Should only be flagged at inflection points (../pair_table.cpp:461)
pair_coeff                  2 3 table CRG_gas_potentials.lmptab Xe-Th 11
WARNING: 2 of 1000 force values in table Xe-Th are inconsistent with -dE/dr.
  Should only be flagged at inflection points (../pair_table.cpp:461)
neighbor                    2.0  bin
neigh_modify                every  1  delay  0  check  yes

dump               1   all  custom  10000 dump_relax.atom.* id type q x y z
dump_modify        1   element  O Th Xe

min_style          cg
minimize           1.0e-30 1.0e-30 10000 10000
PPPM initialization ...
  using 12-bit tables for long-range coulomb (../kspace.cpp:328)
  G vector (1/distance) = 0.29911702
  grid = 40 240 40
  stencil order = 5
  estimated absolute RMS force accuracy = 0.00015352568
  estimated relative force accuracy = 1.0661769e-05
  using single precision MKL FFT
  3d grid and FFT values/proc = 18225 7600
Neighbor list info ...
  update every 1 steps, delay 0 steps, check yes
  max neighbors/atom: 2000, page size: 100000
  master list distance cutoff = 13
  ghost atom cutoff = 13
  binsize = 6.5, bins = 5 52 5
  3 neighbor lists, perpetual/occasional/extra = 3 0 0
  (1) pair coul/long, perpetual
      attributes: half, newton on
      pair build: half/bin/newton
      stencil: half/bin/3d/newton
      bin: standard
  (2) pair eam/alloy, perpetual, skip from (1)
      attributes: half, newton on
      pair build: skip
      stencil: none
      bin: none
  (3) pair table, perpetual, skip from (1)
      attributes: half, newton on
      pair build: skip
      stencil: none
      bin: none
Per MPI rank memory allocation (min/avg/max) = 11.65 | 12.36 | 12.43 Mbytes
Step Temp E_pair E_mol TotEng Press 
       0            0   -229814.11            0   -229814.11    29187.826 
     307            0   -231863.16            0   -231863.16    770.88458 
Loop time of 5.09975 on 52 procs for 307 steps with 17700 atoms

99.8% CPU use with 52 MPI tasks x 1 OpenMP threads

Minimization stats:
  Stopping criterion = linesearch alpha is zero
  Energy initial, next-to-last, final = 
     -229814.108722998   -231863.16009632   -231863.16009632
  Force two-norm initial, final = 1774.8276 0.036512815
  Force max component initial, final = 901.65919 0.0038811036
  Final line search alpha, max atom move = 7.6293945e-06 2.9610470e-08
  Iterations, force evaluations = 307 630

MPI task timing breakdown:
Section |  min time  |  avg time  |  max time  |%varavg| %total
---------------------------------------------------------------
Pair    | 3.7883     | 3.9383     | 4.1094     |   3.8 | 77.23
Bond    | 4.3266e-05 | 7.5387e-05 | 0.00013888 |   0.0 |  0.00
Kspace  | 0.83726    | 1.0109     | 1.1598     |   7.6 | 19.82
Neigh   | 0.019359   | 0.021353   | 0.023269   |   0.5 |  0.42
Comm    | 0.097424   | 0.10052    | 0.10305    |   0.4 |  1.97
Output  | 0          | 0          | 0          |   0.0 |  0.00
Modify  | 0          | 0          | 0          |   0.0 |  0.00
Other   |            | 0.02862    |            |       |  0.56

Nlocal:        340.385 ave         363 max         320 min
Histogram: 2 1 1 20 13 3 5 3 0 4
Nghost:        5543.19 ave        5702 max        5389 min
Histogram: 16 0 0 2 5 11 2 4 0 12
Neighs:       108193.0 ave      118753 max       95199 min
Histogram: 2 0 3 2 9 21 8 2 1 4

Total # of neighbors = 5626047
Ave neighs/atom = 317.85576
Ave special neighs/atom = 0.0000000
Neighbor list builds = 7
Dangerous builds = 0
reset_atom_ids
Resetting atom IDs ...
PPPM initialization ...
  using 12-bit tables for long-range coulomb (../kspace.cpp:328)
  G vector (1/distance) = 0.29911702
  grid = 40 240 40
  stencil order = 5
  estimated absolute RMS force accuracy = 0.00015352568
  estimated relative force accuracy = 1.0661769e-05
  using single precision MKL FFT
  3d grid and FFT values/proc = 18225 7600
Neighbor list info ...
  update every 1 steps, delay 0 steps, check yes
  max neighbors/atom: 2000, page size: 100000
  master list distance cutoff = 13
  ghost atom cutoff = 13
  binsize = 6.5, bins = 5 52 5
  3 neighbor lists, perpetual/occasional/extra = 3 0 0
  (1) pair coul/long, perpetual
      attributes: half, newton on
      pair build: half/bin/newton
      stencil: half/bin/3d/newton
      bin: standard
  (2) pair eam/alloy, perpetual, skip from (1)
      attributes: half, newton on
      pair build: skip
      stencil: none
      bin: none
  (3) pair table, perpetual, skip from (1)
      attributes: half, newton on
      pair build: skip
      stencil: none
      bin: none
Finding 1-2 1-3 1-4 neighbors ...
  special bond factors lj:    0.0      0.0      0.0     
  special bond factors coul:  0.0      0.0      0.0     
     0 = max # of 1-2 neighbors
     0 = max # of 1-3 neighbors
     0 = max # of 1-4 neighbors
     1 = max # of special neighbors
  special bonds CPU = 0.001 seconds
variable           T     equal   600
velocity           all   create  $T  4111 dist gaussian mom yes rot yes
velocity           all   create  600  4111 dist gaussian mom yes rot yes
fix                nvt   all     nvt   temp  $T  $T  0.1
fix                nvt   all     nvt   temp  600  $T  0.1
fix                nvt   all     nvt   temp  600  600  0.1
run                10000
PPPM initialization ...
  using 12-bit tables for long-range coulomb (../kspace.cpp:328)
  G vector (1/distance) = 0.29911702
  grid = 40 240 40
  stencil order = 5
  estimated absolute RMS force accuracy = 0.00015352568
  estimated relative force accuracy = 1.0661769e-05
  using single precision MKL FFT
  3d grid and FFT values/proc = 18225 7600
Neighbor list info ...
  update every 1 steps, delay 0 steps, check yes
  max neighbors/atom: 2000, page size: 100000
  master list distance cutoff = 13
  ghost atom cutoff = 13
  binsize = 6.5, bins = 5 52 5
  3 neighbor lists, perpetual/occasional/extra = 3 0 0
  (1) pair coul/long, perpetual
      attributes: half, newton on
      pair build: half/bin/newton
      stencil: half/bin/3d/newton
      bin: standard
  (2) pair eam/alloy, perpetual, skip from (1)
      attributes: half, newton on
      pair build: skip
      stencil: none
      bin: none
  (3) pair table, perpetual, skip from (1)
      attributes: half, newton on
      pair build: skip
      stencil: none
      bin: none
Per MPI rank memory allocation (min/avg/max) = 10.53 | 11.24 | 11.31 Mbytes
Step Temp E_pair E_mol TotEng Press 
     307          600   -231863.16            0   -230490.49    6396.1025 
   10307     602.2416   -230482.88            0   -229105.09    28246.151 
Loop time of 71.7448 on 52 procs for 10000 steps with 17700 atoms

Performance: 12.043 ns/day, 1.993 hours/ns, 139.383 timesteps/s
99.8% CPU use with 52 MPI tasks x 1 OpenMP threads

MPI task timing breakdown:
Section |  min time  |  avg time  |  max time  |%varavg| %total
---------------------------------------------------------------
Pair    | 52.246     | 53.842     | 56.452     |  13.1 | 75.05
Bond    | 0.00077678 | 0.0013327  | 0.0018089  |   0.6 |  0.00
Kspace  | 13.167     | 15.688     | 17.159     |  24.3 | 21.87
Neigh   | 0.20823    | 0.22638    | 0.24508    |   1.6 |  0.32
Comm    | 1.3805     | 1.486      | 1.6764     |   6.2 |  2.07
Output  | 0.0016516  | 0.0020384  | 0.0053611  |   1.1 |  0.00
Modify  | 0.19961    | 0.35978    | 0.53087    |  19.0 |  0.50
Other   |            | 0.1393     |            |       |  0.19

Nlocal:        340.385 ave         365 max         325 min
Histogram: 2 6 8 16 10 3 3 0 1 3
Nghost:        5536.96 ave        5702 max        5386 min
Histogram: 14 2 2 2 5 11 0 4 0 12
Neighs:       108752.0 ave      117897 max       97539 min
Histogram: 3 1 2 6 6 12 12 5 1 4

Total # of neighbors = 5655121
Ave neighs/atom = 319.49836
Ave special neighs/atom = 0.0000000
Neighbor list builds = 74
Dangerous builds = 0
