LAMMPS (29 Oct 2020)
OMP_NUM_THREADS environment is not set. Defaulting to 1 thread. (../comm.cpp:94)
  using 1 OpenMP thread(s) per MPI task
OMP_NUM_THREADS environment is not set. Defaulting to 1 thread. (../comm.cpp:94)
  using 1 OpenMP thread(s) per MPI task
Reading data file ...
  orthogonal box = (-0.36199259 -4.4445234 -0.35063724) to (27.701993 332.52452 27.690637)
  2 by 13 by 2 MPI processor grid
  reading atoms ...
  17704 atoms
  reading velocities ...
  17704 velocities
Finding 1-2 1-3 1-4 neighbors ...
  special bond factors lj:    0.0      0.0      0.0     
  special bond factors coul:  0.0      0.0      0.0     
     0 = max # of 1-2 neighbors
     0 = max # of 1-3 neighbors
     0 = max # of 1-4 neighbors
     1 = max # of special neighbors
  special bonds CPU = 0.004 seconds
  read_data CPU = 0.090 seconds
WARNING: 13 of 1000 force values in table Xe-Xe are inconsistent with -dE/dr.
  Should only be flagged at inflection points (../pair_table.cpp:461)
WARNING: 2 of 1000 force values in table Xe-O are inconsistent with -dE/dr.
  Should only be flagged at inflection points (../pair_table.cpp:461)
WARNING: 2 of 1000 force values in table Xe-Th are inconsistent with -dE/dr.
  Should only be flagged at inflection points (../pair_table.cpp:461)
Setting atom values ...
  11760 settings made for charge
Setting atom values ...
  5880 settings made for charge
Setting atom values ...
  64 settings made for charge
PPPM initialization ...
  using 12-bit tables for long-range coulomb (../kspace.cpp:328)
  G vector (1/distance) = 0.29879775
  grid = 40 240 40
  stencil order = 5
  estimated absolute RMS force accuracy = 0.00015607635
  estimated relative force accuracy = 1.0838903e-05
  using single precision MKL FFT
  3d grid and FFT values/proc = 18225 7600
Neighbor list info ...
  update every 1 steps, delay 0 steps, check yes
  max neighbors/atom: 2000, page size: 100000
  master list distance cutoff = 13
  ghost atom cutoff = 13
  binsize = 6.5, bins = 5 52 5
  3 neighbor lists, perpetual/occasional/extra = 3 0 0
  (1) pair coul/long, perpetual
      attributes: half, newton on
      pair build: half/bin/newton
      stencil: half/bin/3d/newton
      bin: standard
  (2) pair eam/alloy, perpetual, skip from (1)
      attributes: half, newton on
      pair build: skip
      stencil: none
      bin: none
  (3) pair table, perpetual, skip from (1)
      attributes: half, newton on
      pair build: skip
      stencil: none
      bin: none
Setting up Verlet run ...
  Unit style    : metal
  Current step  : 0
  Time step     : 0.001
Per MPI rank memory allocation (min/avg/max) = 9.612 | 10.01 | 10.03 Mbytes
Step Temp E_pair E_mol TotEng Press 
       0          600   -230409.72            0   -229036.74   -86.832088 
  100000     598.0859   -230427.57            0   -229058.97   -756.28004 
Loop time of 738.53 on 52 procs for 100000 steps with 17704 atoms

Performance: 11.699 ns/day, 2.051 hours/ns, 135.404 timesteps/s
99.8% CPU use with 52 MPI tasks x 1 OpenMP threads

MPI task timing breakdown:
Section |  min time  |  avg time  |  max time  |%varavg| %total
---------------------------------------------------------------
Pair    | 522.27     | 536.7      | 558.75     |  34.4 | 72.67
Bond    | 0.0076293  | 0.013463   | 0.02277    |   2.1 |  0.00
Kspace  | 152.28     | 172.27     | 185.1      |  56.1 | 23.33
Neigh   | 1.9632     | 2.0854     | 2.2417     |   4.5 |  0.28
Comm    | 19.761     | 22.328     | 25.827     |  29.7 |  3.02
Output  | 5.5642e-05 | 6.1386e-05 | 0.00027482 |   0.0 |  0.00
Modify  | 2.4416     | 3.2995     | 5.6263     |  65.1 |  0.45
Other   |            | 1.838      |            |       |  0.25

Nlocal:        340.462 ave         367 max         321 min
Histogram: 2 8 9 8 5 8 6 1 3 2
Nghost:        5538.25 ave        5627 max        5453 min
Histogram: 4 8 8 5 3 7 2 2 2 11
Neighs:       107340.0 ave      116247 max       98852 min
Histogram: 3 2 6 6 12 9 4 4 1 5

Total # of neighbors = 5581663
Ave neighs/atom = 315.27694
Ave special neighs/atom = 0.0000000
Neighbor list builds = 663
Dangerous builds = 0
11760 atoms in group oxygen
PPPM initialization ...
  using 12-bit tables for long-range coulomb (../kspace.cpp:328)
  G vector (1/distance) = 0.29879775
  grid = 40 240 40
  stencil order = 5
  estimated absolute RMS force accuracy = 0.00015607635
  estimated relative force accuracy = 1.0838903e-05
  using single precision MKL FFT
  3d grid and FFT values/proc = 18225 7600
Neighbor list info ...
  update every 1 steps, delay 0 steps, check yes
  max neighbors/atom: 2000, page size: 100000
  master list distance cutoff = 13
  ghost atom cutoff = 13
  binsize = 6.5, bins = 5 52 5
  3 neighbor lists, perpetual/occasional/extra = 3 0 0
  (1) pair coul/long, perpetual
      attributes: half, newton on
      pair build: half/bin/newton
      stencil: half/bin/3d/newton
      bin: standard
  (2) pair eam/alloy, perpetual, skip from (1)
      attributes: half, newton on
      pair build: skip
      stencil: none
      bin: none
  (3) pair table, perpetual, skip from (1)
      attributes: half, newton on
      pair build: skip
      stencil: none
      bin: none
Setting up Verlet run ...
  Unit style    : metal
  Current step  : 0
  Time step     : 0.001
Per MPI rank memory allocation (min/avg/max) = 9.860 | 10.25 | 10.28 Mbytes
Step f_2 Temp v_Tdiff v_deltaT 
       0            0     598.0859            0            0 
  100000    680.66439    596.01448  0.018489505    214.66143 
  200000    1354.2818    599.32254  0.020360875    236.38787 
  300000    2028.8565    600.23325  0.020774547    241.19057 
  400000    2699.3071    601.19659  0.020995461    243.75536 
  500000     3373.511    604.26406  0.020532554    238.38104 
  600000    4044.1616    597.62139  0.020611125    239.29325 
  700000    4719.2475    598.43564  0.019934396    231.43648 
  800000    5391.3861    596.80895  0.020513496    238.15978 
  900000    6065.5074    598.38743  0.020708837    240.42767 
 1000000    6737.4257      597.718  0.021115069    245.14399 
Loop time of 7345.43 on 52 procs for 1000000 steps with 17704 atoms

Performance: 11.762 ns/day, 2.040 hours/ns, 136.139 timesteps/s
99.9% CPU use with 52 MPI tasks x 1 OpenMP threads

MPI task timing breakdown:
Section |  min time  |  avg time  |  max time  |%varavg| %total
---------------------------------------------------------------
Pair    | 5174.2     | 5317.2     | 5580.1     | 130.0 | 72.39
Bond    | 0.083323   | 0.136      | 0.20377    |   6.3 |  0.00
Kspace  | 1500.8     | 1747.3     | 1880.6     | 214.1 | 23.79
Neigh   | 19.778     | 21.357     | 22.764     |  13.9 |  0.29
Comm    | 192.22     | 221.74     | 252.84     |  87.2 |  3.02
Output  | 0.00111    | 0.0011736  | 0.0024153  |   0.5 |  0.00
Modify  | 7.0963     | 7.7582     | 8.7242     |  12.9 |  0.11
Other   |            | 29.94      |            |       |  0.41

Nlocal:        340.462 ave         370 max         322 min
Histogram: 3 5 7 15 10 7 3 0 1 1
Nghost:        5530.33 ave        5628 max        5453 min
Histogram: 4 11 13 0 3 5 4 0 1 11
Neighs:       107331.0 ave      118920 max       97779 min
Histogram: 2 2 7 9 15 5 8 2 1 1

Total # of neighbors = 5581203
Ave neighs/atom = 315.25096
Ave special neighs/atom = 0.0000000
Neighbor list builds = 6861
Dangerous builds = 0
Total wall time: 2:14:44
