LAMMPS data file via write_data, version 29 Oct 2020, timestep = 100163

17760 atoms
3 atom types

-0.3736985009731028 27.713698500972672 xlo xhi
-4.532038309413922 332.612038309412 ylo yhi
-0.3706319453773293 27.7106319453768 zlo zhi

Masses

1 15.9994
2 232.0381
3 131.293

Atoms # full

1 0 2 2.2208 5.196143940333536 1.1368101570306075 5.122836885943754 0 0 0
2 0 1 -1.1104 0.9180397927070119 -3.2769943594985396 0.8582347463483161 0 0 0
3 0 1 -1.1104 1.0086838269331786 2.620483449294031 0.9758687457415899 0 0 0
6 0 1 -1.1104 1.1424668753195448 -3.0548640798161966 3.635746524791169 0 0 0
7 0 1 -1.1104 1.0876408717699746 2.621945298557161 3.661527401662586 0 0 0
10 0 1 -1.1104 1.0598470335459085 -0.36589569223891627 1.1049192890417936 0 0 0
12 0 2 2.2208 5.299124545094559 -1.7876904631818213 2.4643190973212667 0 0 0
13 0 2 2.2208 5.195246291625457 3.9085307341391142 2.4236541374073495 0 0 0
14 0 1 -1.1104 0.8854019793947586 -0.1550903408085588 3.858011690082003 0 0 0
16 0 1 -1.1104 3.8438211307004964 -3.181068583540585 1.0261030877593775 0 0 0
17 0 1 -1.1104 3.863850822893166 2.593464216544018 1.0228855383862892 0 0 0
18 0 2 2.2208 2.304458387991448 1.0275032947310898 2.4731250382071526 0 0 0
19 0 1 -1.1104 4.032637043588596 -3.2871561176683888 3.757359802879178 0 0 0
20 0 1 -1.1104 3.7740535128949304 2.4219300864522975 3.8194423375752726 0 0 0
21 0 2 2.2208 2.4959176599179402 -1.7415452407075624 5.283547400315768 0 0 0
23 0 1 -1.1104 3.7722668140767417 -0.4172211310739146 1.139460154349704 0 0 0
24 0 1 -1.1104 3.7509919330481325 -0.39190552866186923 3.7647390261853046 0 0 0
22 0 2 2.2208 2.436258916803764 3.9230670965810677 5.14820933054484 0 0 0
4 0 1 -1.1104 6.565141386218988 -2.9380109536547723 0.954697864446333 0 0 0
172 0 1 -1.1104 3.763064134452619 -3.0959241114627933 6.590736981383479 0 0 0
5 0 1 -1.1104 6.4970384911770624 2.5942509927590844 0.864600007366086 0 0 0
8 0 1 -1.1104 6.768251670738121 -3.122119982214536 3.64403804140217 0 0 0
174 0 1 -1.1104 3.7323095343411246 0.008639923561798515 6.648718411835948 0 0 0
169 0 1 -1.1104 6.720214203646564 2.641127770345148 6.420585323572639 0 0 0
11 0 1 -1.1104 6.4751058968272 -0.12931878662041352 1.033827426994923 0 0 0
9022 0 2 2.2208 2.435631631977169 -4.5014446074546495 2.2657398523065817 0 0 0
9023 0 2 2.2208 5.288507130913007 -4.509769976393271 5.195726852359462 0 0 0
173 0 1 -1.1104 3.857158661432129 2.6818279867745884 6.60997392391771 0 0 0
167 0 1 -1.1104 0.949053060464415 2.689336429556324 6.67863796149629 0 0 0
330 0 1 -1.1104 12.24195080082177 13.651413030190486 12.35841196783283 0 0 0
328 0 1 -1.1104 12.25511668004111 13.853792237529076 9.300719107357905 0 0 0
9 0 1 -1.1104 6.58350388651197 2.576244123142095 3.7639952179306997 0 0 0
15 0 1 -1.1104 6.533579230338274 -0.3148695790485329 3.862445685685744 0 0 0
168 0 1 -1.1104 6.542238603321127 -2.9393225477369187 6.618849717195974 0 0 0
171 0 1 -1.1104 6.7017089252026025 -0.1258302412112479 6.559818221632412 0 0 0
9026 0 2 2.2208 10.834854140301909 -4.257582462111733 5.218604176389461 0 0 0
31 0 2 2.2208 10.83873104820389 1.0836286959723085 5.254886668888856 0 0 0
32 0 1 -1.1104 12.325012636952291 -2.983064695964385 1.0001730960436912 0 0 0
33 0 1 -1.1104 12.301724017228366 2.580833990348338 0.982813009449963 0 0 0
34 0 1 -1.1104 12.146820609062528 -3.07964571930031 3.668166685061736 0 0 0
35 0 1 -1.1104 12.119597817735263 2.491348444575043 3.685776894151368 0 0 0
36 0 1 -1.1104 12.240754083050362 -0.18181407066921995 0.7945947045351885 0 0 0
37 0 2 2.2208 10.800222985358987 -1.5625553522499327 2.2293291308246075 0 0 0
38 0 2 2.2208 10.882301895712894 3.816294769878676 2.3350279242588097 0 0 0
39 0 1 -1.1104 12.182838060133191 -0.259435390844773 3.884757896102909 0 0 0
40 0 1 -1.1104 9.453070600576975 -3.0016652780900315 0.821538107851642 0 0 0
41 0 1 -1.1104 9.554560418784824 2.5427910520313826 0.9127187941195011 0 0 0
42 0 2 2.2208 7.969511711843132 1.2533423084900854 2.4758438567686687 0 0 0
43 0 1 -1.1104 9.372177367329126 -2.968879910459128 3.8271457319794804 0 0 0
44 0 1 -1.1104 9.379591811826092 2.6031112312847355 3.7484081087727508 0 0 0
45 0 2 2.2208 8.028814291206526 -1.641354694625195 5.127241329031205 0 0 0
47 0 1 -1.1104 9.426913109588249 -0.1955620668062074 0.8799847523068067 0 0 0
48 0 1 -1.1104 9.416072334888726 -0.24057253539565387 3.603982592246126 0 0 0
46 0 2 2.2208 8.075433056364167 4.034027183465568 5.026213659858391 0 0 0
208 0 1 -1.1104 9.234781797570134 -2.9278934491648876 6.637702972370739 0 0 0
209 0 1 -1.1104 9.479258873444811 2.72216042601834 6.676930725110949 0 0 0
9025 0 2 2.2208 8.166894105037617 -4.460133244056346 2.3909442695642067 0 0 0
206 0 1 -1.1104 12.404557177661657 2.4829739325265416 6.618307030851492 0 0 0
49 0 2 2.2208 13.480120959156249 1.143537659558659 2.3928854940314888 0 0 0
321 0 1 -1.1104 9.442732129057257 19.360671187769285 12.239080104407087 0 0 0
50 0 2 2.2208 13.580503658402469 -1.6642812864949863 5.213328797503664 0 0 0
54 0 2 2.2208 5.206273278769143 6.78518841731904 5.214115697395748 0 0 0
55 0 2 2.2208 5.2324296472385345 12.276932413467668 5.200276651841292 0 0 0
56 0 1 -1.1104 1.0967626799725159 8.14766615484407 1.0259848190569838 0 0 0
58 0 1 -1.1104 0.8879592518048298 8.156201092208159 3.772606813962602 0 0 0
60 0 1 -1.1104 0.9705256728614784 5.430870607631905 0.9514490465190532 0 0 0
61 0 1 -1.1104 0.8719663821886621 10.866347921940429 1.1725631277693747 0 0 0
66 0 2 2.2208 5.355095481448025 9.555318625053157 2.381960987751093 0 0 0
67 0 1 -1.1104 1.0664173701374011 5.360663163732405 3.7993484815540595 0 0 0
68 0 1 -1.1104 1.111395314823535 10.984623546303823 3.9544960896777392 0 0 0
71 0 1 -1.1104 3.9001487820253304 8.16244666327401 1.0371200105105518 0 0 0
72 0 2 2.2208 2.5728339019727455 6.867806073975292 2.407468344069931 0 0 0
73 0 2 2.2208 2.469698579207115 12.273652504754267 2.493908410875924 0 0 0
74 0 1 -1.1104 3.528286128921819 8.146498760653255 3.9727452373668397 0 0 0
75 0 2 2.2208 2.346677763701217 9.564599606467837 5.239721780984202 0 0 0
76 0 1 -1.1104 3.885492459710913 5.433458723484079 0.9583327640501048 0 0 0
77 0 1 -1.1104 3.738642891406948 10.931906661758338 0.9729500111834803 0 0 0
79 0 1 -1.1104 3.949872594836281 5.309494912836461 3.8938359823954083 0 0 0
80 0 1 -1.1104 4.000105668456627 10.840461677217862 3.727773526053077 0 0 0
70 0 1 -1.1104 6.687250514508625 10.741182768683617 3.879923588263007 0 0 0
62 0 1 -1.1104 1.0721566769166064 11.016319976611658 6.708101551411634 0 0 0
69 0 1 -1.1104 6.735057651112718 5.375668617124186 3.751745452095095 0 0 0
239 0 1 -1.1104 3.977056161723593 5.549767992597077 6.768258440992657 0 0 0
237 0 1 -1.1104 6.706269149388367 5.339894504124771 6.56626852230552 0 0 0
81 0 2 2.2208 -0.3636191867099699 6.732128281451415 5.201243890795709 0 0 0
323 0 1 -1.1104 12.383052829858293 16.569526899179877 9.47708740167389 0 0 0
320 0 2 2.2208 8.097034131790274 18.131175608602923 8.009827536931189 0 0 0
57 0 1 -1.1104 6.73359417125958 8.204090766028974 0.8595235617520717 0 0 0
63 0 1 -1.1104 6.695836986907766 5.3396076627468405 1.0705700740308282 0 0 0
59 0 1 -1.1104 6.39500604055882 8.05616568207128 3.7091901288482645 0 0 0
65 0 1 -1.1104 6.618977313672634 11.051133134477245 6.697780733887233 0 0 0
64 0 1 -1.1104 6.78679033468046 10.923476596922377 1.0526263186617406 0 0 0
84 0 2 2.2208 10.899307917844503 6.715797333641648 5.085905157249327 0 0 0
85 0 2 2.2208 10.805050193336763 12.253957629624209 5.195556939537587 0 0 0
86 0 1 -1.1104 12.179719639788035 8.17906141645752 0.971032411954323 0 0 0
87 0 1 -1.1104 12.097053551624816 8.196294529301388 3.823549546679298 0 0 0
88 0 1 -1.1104 12.20137267292571 5.4107345709561425 0.960237433428582 0 0 0
89 0 1 -1.1104 12.136729550271347 10.968615509048151 0.9728873435093107 0 0 0
91 0 2 2.2208 10.785551813491418 9.46532330948062 2.379038449378577 0 0 0
92 0 1 -1.1104 12.43559941818359 5.146135571790355 3.7504232517014855 0 0 0
93 0 1 -1.1104 12.215136066606119 10.889045299881474 3.9860681638857716 0 0 0
94 0 1 -1.1104 9.43642346752049 7.990320031214838 0.9726750457979544 0 0 0
95 0 2 2.2208 8.006873235828916 6.798694292652401 2.4473346924880546 0 0 0
96 0 2 2.2208 8.129713704313488 12.28936391163344 2.3261894166468506 0 0 0
97 0 1 -1.1104 9.14557083550722 8.353076249416185 3.602711055534631 0 0 0
98 0 2 2.2208 7.926297276080869 9.518771651134154 5.199657781577686 0 0 0
99 0 1 -1.1104 9.448045499994711 5.26150958267435 0.9457743514563506 0 0 0
100 0 1 -1.1104 9.398062760054039 10.852971466335768 0.9298446600887874 0 0 0
102 0 1 -1.1104 9.572971378649795 5.42353053859941 3.7281396148469925 0 0 0
103 0 1 -1.1104 9.474477028535025 10.931728189034125 3.7810262364894234 0 0 0
9024 0 2 2.2208 -0.3574476516371412 -4.4958034638405024 5.19305663969733 0 0 0
232 0 2 2.2208 13.64978024252335 9.505320825529573 5.342458475743878 0 0 0
265 0 1 -1.1104 12.27556620451945 8.212623519963303 6.764369833656467 0 0 0
90 0 1 -1.1104 12.297795465241506 10.796699044877084 6.742247048040395 0 0 0
101 0 1 -1.1104 9.39330312910231 10.74370630852627 6.540659218296412 0 0 0
105 0 2 2.2208 13.662935483380853 6.650061204433409 2.465024999042651 0 0 0
106 0 2 2.2208 5.261943981929751 17.878843451211267 5.086320788682858 0 0 0
107 0 1 -1.1104 0.8153876649868929 13.660356491042332 1.1681147297656265 0 0 0
109 0 1 -1.1104 1.1714596738254681 19.276337441390798 0.9389880070122039 0 0 0
113 0 1 -1.1104 1.1713500304504527 13.836008978113494 3.9350251591087493 0 0 0
114 0 1 -1.1104 0.9122760108573854 19.266920319623544 3.738209953952581 0 0 0
116 0 1 -1.1104 1.0373401830657307 16.52025089972909 0.9925578998953452 0 0 0
119 0 2 2.2208 5.175108391132625 14.993236125762222 2.3994795348863547 0 0 0
120 0 2 2.2208 5.226658718538094 20.757461279616496 2.422674040193504 0 0 0
121 0 1 -1.1104 0.9489046942131517 16.503309095346566 3.6698014469444216 0 0 0
123 0 1 -1.1104 3.7245782748285947 13.7692327271094 1.0297076484520755 0 0 0
125 0 1 -1.1104 3.7915065173554017 19.26920889443381 0.9598731550260711 0 0 0
127 0 2 2.2208 2.3941824043901647 17.81870419711221 2.368738826363371 0 0 0
128 0 1 -1.1104 3.962520596110554 13.628674160401394 3.8483700933037865 0 0 0
129 0 1 -1.1104 3.772254850771617 19.196753390476267 3.7675475365498086 0 0 0
130 0 2 2.2208 2.3892429727092894 15.185611687944515 5.254517867238775 0 0 0
131 0 2 2.2208 2.4749473876878474 20.741431593105414 5.245787289410639 0 0 0
132 0 1 -1.1104 3.7378345824595134 16.616482452878834 0.9401439676680571 0 0 0
134 0 1 -1.1104 3.811888261281307 16.47412093165528 3.811274963226559 0 0 0
115 0 1 -1.1104 6.578210655094743 13.614461429364598 3.643935720293686 0 0 0
133 0 1 -1.1104 3.8435309683963044 16.61575720739487 6.692043234112401 0 0 0
118 0 1 -1.1104 6.651091845556244 16.715618284452844 6.734267082278662 0 0 0
126 0 1 -1.1104 3.9173231154854804 19.44056283451624 6.647892485459346 0 0 0
124 0 1 -1.1104 3.81954189560114 13.887679276085755 6.602199859439152 0 0 0
111 0 1 -1.1104 6.5594181278054595 13.795536998403637 6.355359167297471 0 0 0
139 0 1 -1.1104 6.68990044608868 19.26416351738783 3.8068874141857636 0 0 0
122 0 1 -1.1104 6.60105801495315 16.510357147958462 3.720857067156432 0 0 0
110 0 1 -1.1104 6.66480843822019 13.720411163337706 0.9436458160506099 0 0 0
138 0 1 -1.1104 6.5773715286823045 19.304356048667614 1.0829308437681782 0 0 0
137 0 2 2.2208 -0.3164120007337838 17.948706734280577 5.1033284103672925 0 0 0
302 0 1 -1.1104 1.0517776974713882 19.318772081723083 6.572460961600836 0 0 0
165 0 2 2.2208 13.628736275128817 17.980478919295372 2.422199058360903 0 0 0
112 0 1 -1.1104 6.650367059747978 19.31687870205154 6.422587376833378 0 0 0
149 0 1 -1.1104 12.139306123060134 16.601444137097985 6.775502310652892 0 0 0
140 0 1 -1.1104 6.657339737498953 16.335612961839747 1.0031744423069722 0 0 0
141 0 2 2.2208 10.847606677174648 17.886912873185427 5.257690935815648 0 0 0
142 0 1 -1.1104 12.141040186794816 13.586109916481472 1.109076618217414 0 0 0
144 0 1 -1.1104 12.294647147547597 19.436177608223122 0.8986720701680784 0 0 0
146 0 1 -1.1104 12.294310669237632 13.792717036848362 3.832163214762629 0 0 0
147 0 1 -1.1104 12.165093717797726 19.18035702156389 3.7553324020956085 0 0 0
148 0 1 -1.1104 12.185909805257248 16.570496602681825 0.9955015775930892 0 0 0
150 0 2 2.2208 10.760022757587967 15.111426256723906 2.4307692226490296 0 0 0
151 0 2 2.2208 10.820437193652307 20.71001176861484 2.3602532312210958 0 0 0
152 0 1 -1.1104 12.232879654689093 16.523625829597833 3.8027496261590152 0 0 0
153 0 1 -1.1104 9.467251619781106 13.765547465246483 1.0024092753095297 0 0 0
155 0 1 -1.1104 9.352856931401504 19.22988042688054 1.1265977796956277 0 0 0
157 0 2 2.2208 7.99561890263691 17.83982137017578 2.4303344907347655 0 0 0
158 0 1 -1.1104 9.446552128591138 13.572034319258282 3.762372583352058 0 0 0
159 0 1 -1.1104 9.44920941636517 19.35400640634832 3.6957284675520286 0 0 0
160 0 2 2.2208 7.89538376427325 15.115784482830158 5.205278852092746 0 0 0
161 0 2 2.2208 8.089245872204335 20.77537621719753 5.089244905992479 0 0 0
162 0 1 -1.1104 9.501688748464947 16.639021150926556 0.8040446848441339 0 0 0
164 0 1 -1.1104 9.380068958495936 16.327786926776966 3.7623983212393615 0 0 0
163 0 1 -1.1104 9.336345319581106 16.609270095540626 6.530431657243649 0 0 0
156 0 1 -1.1104 9.509206045866444 19.262641732529104 6.553657181287986 0 0 0
145 0 1 -1.1104 12.301852007391705 19.33966076474633 6.52409575078562 0 0 0
154 0 1 -1.1104 9.36461538245607 13.559278655464365 6.578948948007677 0 0 0
143 0 1 -1.1104 12.095069114810354 13.661561890010814 6.635713000878929 0 0 0
9027 0 2 2.2208 13.613679174571429 -4.36233627234094 2.3577279830154105 0 0 0
9049 0 2 2.2208 2.51666860100986 -4.3905705949598985 13.556647951103537 0 0 0
9029 0 2 2.2208 5.3278280707947205 -4.408272505376424 10.742193457752274 0 0 0
9028 0 2 2.2208 2.5057646688339656 -4.4373140968971185 8.043860968126312 0 0 0
166 0 1 -1.1104 1.065907386077527 -3.0809932058199103 6.605663882745347 0 0 0
170 0 1 -1.1104 1.071145753617887 -0.4405117402968264 6.69780439917478 0 0 0
175 0 2 2.2208 5.2606932044542525 1.2196730645159244 10.957822237538997 0 0 0
176 0 1 -1.1104 1.1879025712307947 -3.0132111784130506 12.071917623967552 0 0 0
177 0 1 -1.1104 1.0733964932235494 2.509987242026733 12.152762949341232 0 0 0
180 0 1 -1.1104 1.0722949581165528 -3.086053644938801 9.326246861212224 0 0 0
181 0 1 -1.1104 0.9843247059909905 2.504570806313996 9.462548932587987 0 0 0
184 0 1 -1.1104 1.0361562590532856 -0.19906596931083248 12.260843676791788 0 0 0
186 0 2 2.2208 5.32560531365716 -1.5759414558844882 8.014397882117313 0 0 0
187 0 2 2.2208 5.15583405673619 4.053390337732402 8.060910687431555 0 0 0
188 0 1 -1.1104 1.133020316732582 -0.30559146417653765 9.443469596920952 0 0 0
190 0 1 -1.1104 4.07234381615519 -2.95851048252728 12.29067396092345 0 0 0
191 0 1 -1.1104 3.8442955822800022 2.56005362558493 12.465365463630311 0 0 0
192 0 2 2.2208 2.450668991839804 1.245991989180858 8.161265950649613 0 0 0
193 0 1 -1.1104 3.8820833563277755 -2.8526603769998253 9.467358771533709 0 0 0
194 0 1 -1.1104 3.8282102907019846 2.834802299632885 9.573228024186651 0 0 0
195 0 2 2.2208 2.4550830369538588 -1.6010769354210588 10.952281237042994 0 0 0
196 0 2 2.2208 2.395502288463627 3.971742054785627 10.859814635795685 0 0 0
197 0 1 -1.1104 3.855298515126305 -0.22011950397484334 12.112465950047905 0 0 0
198 0 1 -1.1104 4.1254323628332354 0.03619489378824347 9.339069235808129 0 0 0
189 0 1 -1.1104 6.756930372935717 -0.2634655928757542 9.500181405536262 0 0 0
182 0 1 -1.1104 6.584938449846814 -2.973072898692415 9.496287890642188 0 0 0
183 0 1 -1.1104 6.551518035072171 2.5684270105522504 9.426576620932268 0 0 0
178 0 1 -1.1104 6.872653559781399 -2.9193197850777532 12.3587029441863 0 0 0
179 0 1 -1.1104 6.571173566904621 2.7476102834474356 12.20244745449203 0 0 0
200 0 2 2.2208 -0.3450942766655378 -1.810333901314728 7.969577118705634 0 0 0
339 0 2 2.2208 2.409175814629426 1.1800888729324241 13.616038879053281 0 0 0
329 0 1 -1.1104 12.320875308586121 19.28187650032477 12.249972137664436 0 0 0
312 0 2 2.2208 -0.3558650855961929 17.96555024604711 10.739339623646554 0 0 0
9032 0 2 2.2208 10.927025882318805 -4.497072787741024 10.826749015265888 0 0 0
207 0 1 -1.1104 12.247795620969525 -0.2898871162192009 6.722819402956078 0 0 0
9045 0 2 2.2208 8.14314339867641 -4.456180312811214 13.57847885313215 0 0 0
210 0 1 -1.1104 9.443710560736644 -0.1539273914562159 6.574707118379591 0 0 0
203 0 2 2.2208 13.59166880646167 3.9314570798116946 10.934192183216505 0 0 0
185 0 1 -1.1104 6.576090257490177 -0.1853959485678519 12.343151885070228 0 0 0
9031 0 2 2.2208 8.061908389268675 -4.400013112668588 7.945552076236098 0 0 0
289 0 1 -1.1104 6.540766336172038 16.50571751925251 9.419450272905786 0 0 0
205 0 1 -1.1104 12.292366008716007 -2.9373495664811946 6.562148907843294 0 0 0
211 0 2 2.2208 10.816541125824324 1.1454753455934368 10.84058228155656 0 0 0
212 0 1 -1.1104 12.424363277978033 -3.128737661936002 12.349898872792114 0 0 0
213 0 1 -1.1104 12.129551036718581 2.4636736957425187 12.263229437747666 0 0 0
214 0 1 -1.1104 12.318250137054822 -3.111691377267558 9.36707890476044 0 0 0
215 0 1 -1.1104 12.282709107270016 2.5809561644040895 9.465064194670843 0 0 0
216 0 1 -1.1104 12.094465007180006 -0.289903144938083 12.260045809283914 0 0 0
217 0 2 2.2208 10.919606984669766 -1.5471263464581668 8.042488100736364 0 0 0
218 0 2 2.2208 10.863928497155982 4.023384161448093 8.033075858920819 0 0 0
219 0 1 -1.1104 12.253469790953252 -0.32489302242578566 9.49373739524793 0 0 0
220 0 1 -1.1104 9.558994313796648 -3.06935080035352 12.274369730727008 0 0 0
221 0 1 -1.1104 9.324561768985678 2.606829282437482 12.1643432471766 0 0 0
222 0 2 2.2208 7.994969156565406 1.225939355029187 8.011872302211145 0 0 0
223 0 1 -1.1104 9.516031662315513 -2.8782317170735254 9.617044181334753 0 0 0
224 0 1 -1.1104 9.40275025653532 2.625138808456974 9.37157642559757 0 0 0
225 0 2 2.2208 8.089961459202128 -1.52865392746917 10.87117974160463 0 0 0
227 0 1 -1.1104 9.351646529651164 -0.12465980212773292 12.256679410049358 0 0 0
228 0 1 -1.1104 9.468475516618422 -0.20724359237117954 9.393631100279881 0 0 0
226 0 2 2.2208 7.893236852463819 4.09270054672427 10.658857035891215 0 0 0
343 0 2 2.2208 7.957998255867563 1.1615671202389253 13.626266660842042 0 0 0
350 0 2 2.2208 10.698001832495244 3.9560404684094648 13.484602312755335 0 0 0
313 0 2 2.2208 -0.2279049437933729 15.142334832746922 8.062662554342996 0 0 0
238 0 1 -1.1104 3.783398794700629 8.291516441946843 6.786049857216415 0 0 0
78 0 1 -1.1104 3.718536052650768 11.047091589234098 6.762940590208705 0 0 0
235 0 1 -1.1104 6.504188793675849 8.208211789407894 6.610170294873302 0 0 0
363 0 2 2.2208 13.598073338426522 17.937683944754518 13.634198763654783 0 0 0
236 0 1 -1.1104 1.054464095917345 5.357653870730432 6.6804700742295235 0 0 0
234 0 1 -1.1104 0.9237042437517802 8.173703182628014 6.63364132279359 0 0 0
240 0 2 2.2208 5.148161007181483 6.8504688069487925 10.78626161071607 0 0 0
241 0 2 2.2208 5.241167724794458 12.340673897033092 10.839095304820836 0 0 0
242 0 1 -1.1104 1.0159313521615896 8.25622891609039 12.18785500964712 0 0 0
244 0 1 -1.1104 0.9487196371598255 8.164210855679647 9.412872332995317 0 0 0
246 0 1 -1.1104 1.148294740680947 5.423925108727187 12.234473113394074 0 0 0
247 0 1 -1.1104 1.0494245217457498 11.01666919323941 12.264525052039358 0 0 0
250 0 2 2.2208 5.20056106826656 9.534899983332108 8.15350423493202 0 0 0
251 0 1 -1.1104 1.0578593040713962 5.36331758016228 9.565697608253874 0 0 0
252 0 1 -1.1104 0.8723234713767338 10.871996516331102 9.530896551321476 0 0 0
255 0 1 -1.1104 3.8113393375199784 8.200828788580052 12.222621152260654 0 0 0
256 0 2 2.2208 2.371096736361025 6.7860791746369 8.007353770190809 0 0 0
257 0 2 2.2208 2.454628318877661 12.463973393408837 8.018175438018753 0 0 0
258 0 1 -1.1104 3.8525442713549536 8.227703147840707 9.457836368371321 0 0 0
259 0 2 2.2208 2.3177281692865868 9.659201758872662 10.917711951852747 0 0 0
260 0 1 -1.1104 3.819954968518171 5.431298741981087 12.332699816978579 0 0 0
261 0 1 -1.1104 3.8943087944588815 10.96245394050793 12.39333204925294 0 0 0
262 0 1 -1.1104 3.8107838454926632 5.407920927276152 9.57146562672846 0 0 0
263 0 1 -1.1104 3.7269763117054753 11.077454517775084 9.567436862499957 0 0 0
243 0 1 -1.1104 6.658440050467122 8.261134973576441 12.156426847332117 0 0 0
245 0 1 -1.1104 6.567856137766102 8.017625429222534 9.45886807346298 0 0 0
253 0 1 -1.1104 6.524258136722917 5.430598538334729 9.307252585661669 0 0 0
351 0 2 2.2208 2.456100007880028 6.8297604128595175 13.581174538640365 0 0 0
352 0 2 2.2208 5.212998748652315 9.609681037061202 13.583401076793855 0 0 0
290 0 1 -1.1104 6.62849466398885 13.776172882118974 9.390162132219407 0 0 0
248 0 1 -1.1104 6.626170042224253 5.439954057622433 12.153854748120109 0 0 0
254 0 1 -1.1104 6.543613033411651 10.962713219410732 9.44493462858253 0 0 0
249 0 1 -1.1104 6.6735251226687735 11.02051225167995 12.244705409075609 0 0 0
266 0 1 -1.1104 12.301727699646898 5.3887632376668915 6.5678243953718045 0 0 0
269 0 1 -1.1104 9.556664704394999 5.453268775241755 6.6135297352958435 0 0 0
267 0 1 -1.1104 9.388629745014862 8.138322005515436 6.549134748582685 0 0 0
264 0 1 -1.1104 9.335488518805425 10.885070796791984 9.29515361142102 0 0 0
268 0 1 -1.1104 9.535645780107197 5.4092651624721455 9.329097174308188 0 0 0
270 0 1 -1.1104 9.395820474396336 10.967803414199363 12.124889644992823 0 0 0
271 0 1 -1.1104 9.326858640582971 5.3671531815518705 12.155935178606473 0 0 0
272 0 2 2.2208 8.022772908975725 9.572945258041967 10.8181162103147 0 0 0
273 0 1 -1.1104 9.387114069440882 8.102492491103913 9.438395141637537 0 0 0
274 0 2 2.2208 7.925821948376042 12.407916991144045 8.103167423655538 0 0 0
275 0 2 2.2208 8.04757260225275 6.7750730789591955 7.943411683386072 0 0 0
276 0 2 2.2208 10.861098739350938 6.783001137893353 10.805759130263986 0 0 0
277 0 2 2.2208 10.865108229897299 12.499189661052563 10.815874957371703 0 0 0
278 0 1 -1.1104 12.490181614122129 8.204096562976273 12.299933452614352 0 0 0
279 0 1 -1.1104 12.114017708366106 8.267446377791202 9.530278646997994 0 0 0
280 0 1 -1.1104 12.213145585039587 5.5583753487751615 12.185226354510796 0 0 0
281 0 1 -1.1104 12.149440730637812 10.957451263788377 12.265762807479534 0 0 0
282 0 2 2.2208 10.813431898969133 9.515737644009791 8.096313214984127 0 0 0
283 0 1 -1.1104 12.291907421144954 5.177814018584863 9.392671147536513 0 0 0
284 0 1 -1.1104 12.193782131877576 11.114487625046985 9.480196089017106 0 0 0
285 0 1 -1.1104 9.616290627938355 8.138347261829365 12.169784020128422 0 0 0
202 0 2 2.2208 13.612264569599246 6.6921692416255665 8.001043575535059 0 0 0
53 0 2 2.2208 13.543656814938217 12.322253013137585 8.041904957342945 0 0 0
355 0 2 2.2208 10.8228769614754 9.500355275216721 13.62408332642766 0 0 0
356 0 2 2.2208 8.068849640884173 12.286775212648537 13.61846260466541 0 0 0
117 0 1 -1.1104 1.162939488586368 16.593511227030206 6.439707882780009 0 0 0
296 0 1 -1.1104 6.638600606868522 19.355917942868345 12.288190009442767 0 0 0
288 0 1 -1.1104 6.603378197062328 19.276704550014976 9.446215078290976 0 0 0
108 0 1 -1.1104 1.018139106391173 13.70225282131637 6.628804310416064 0 0 0
303 0 2 2.2208 2.442954700374767 18.098546624403877 7.945833595608204 0 0 0
298 0 1 -1.1104 0.9641289824162077 19.289892301888166 12.152907450200253 0 0 0
305 0 1 -1.1104 3.842213962382978 13.74140337774151 9.542074908906775 0 0 0
304 0 1 -1.1104 3.7807277518583864 16.571435609131075 9.529281538701385 0 0 0
301 0 1 -1.1104 3.780352244427283 19.422840939896563 9.505903894779864 0 0 0
295 0 2 2.2208 5.203564541129567 15.192092450915862 8.004762741552579 0 0 0
310 0 2 2.2208 2.5108995235670735 15.128705819763452 10.887340393963694 0 0 0
309 0 2 2.2208 2.41597765064671 20.654941309136134 10.869059782143811 0 0 0
308 0 1 -1.1104 4.070939805184645 16.614389145423534 12.21256514454448 0 0 0
307 0 1 -1.1104 1.141820218140397 16.537090690472738 12.248279675268959 0 0 0
300 0 2 2.2208 5.391534480467122 17.875478239454832 10.882535472891956 0 0 0
299 0 1 -1.1104 1.1423742659948848 13.819658736939367 12.209682807894216 0 0 0
294 0 1 -1.1104 0.998616916908391 13.658750187754334 9.404473576260154 0 0 0
286 0 1 -1.1104 3.688714417123754 19.29327176884881 12.357501760438238 0 0 0
287 0 1 -1.1104 3.929756537682855 13.68624752966543 12.365313256057235 0 0 0
291 0 1 -1.1104 0.9712598535241872 19.391296261514924 9.437177035109524 0 0 0
292 0 1 -1.1104 1.112749866434357 16.63320990784284 9.407326475354713 0 0 0
293 0 2 2.2208 5.284359108587544 20.744059819650623 7.997666336178113 0 0 0
357 0 2 2.2208 2.4630759155585644 17.876474143311576 13.605621529456846 0 0 0
359 0 2 2.2208 5.31145082838758 15.048835327819923 13.657936230439605 0 0 0
201 0 2 2.2208 -0.3662341862039078 1.0199630288493875 10.819326495848113 0 0 0
297 0 1 -1.1104 6.753063384855821 13.703083699485976 12.218013098322333 0 0 0
317 0 2 2.2208 8.165287004958547 15.197126697010159 10.79374949330638 0 0 0
332 0 2 2.2208 13.647784397707333 17.97985847348494 7.851445589429948 0 0 0
360 0 2 2.2208 10.83587997627818 20.682979646295117 13.623945607062703 0 0 0
327 0 1 -1.1104 12.336134974198147 19.365762011135566 9.460447644379629 0 0 0
316 0 2 2.2208 8.077709019250355 20.69838115495272 10.872217270772719 0 0 0
318 0 1 -1.1104 9.525916292364828 19.371973663756513 9.456899590546923 0 0 0
322 0 1 -1.1104 9.497777430351187 13.813720799622505 12.278872441495793 0 0 0
315 0 1 -1.1104 9.602261919409681 16.60128784643599 12.249685139064665 0 0 0
319 0 1 -1.1104 9.391028795214819 13.901476223337012 9.39798616724039 0 0 0
326 0 1 -1.1104 12.242344900186367 16.45656319340764 12.265223173527248 0 0 0
324 0 2 2.2208 10.903382681866953 20.85407111728432 8.077126914584772 0 0 0
306 0 1 -1.1104 6.760856785409331 16.47369298662938 12.236913773582375 0 0 0
325 0 2 2.2208 10.785698263346406 15.21001461074231 7.939992734322689 0 0 0
314 0 1 -1.1104 9.459223169932548 16.6845384920619 9.41474458513177 0 0 0
331 0 2 2.2208 10.936346578852165 18.012403120967473 10.793131163521846 0 0 0
136 0 2 2.2208 -0.3584992482106806 20.899996119269023 2.4518902939679417 0 0 0
335 0 2 2.2208 -0.3550007738924741 20.757021108042572 13.556605206347735 0 0 0
104 0 2 2.2208 13.652394818934846 12.326081896917325 2.4667231700623176 0 0 0
204 0 2 2.2208 13.621061852594808 15.029189026753718 5.250247391540457 0 0 0
231 0 2 2.2208 13.612390446612748 20.78230087619872 5.26857642702719 0 0 0
341 0 2 2.2208 5.181697008286405 4.0550164903107015 13.627838002764896 0 0 0
340 0 2 2.2208 13.584276032166171 1.0171706364844517 13.645899137045571 0 0 0
354 0 2 2.2208 7.915943769109634 6.67098407693014 13.50729839760045 0 0 0
342 0 2 2.2208 -0.3207150178640534 15.170131214689137 13.622410949262237 0 0 0
361 0 2 2.2208 10.928958927151175 15.103503758147218 13.531173296833648 0 0 0
365 0 2 2.2208 2.4333352305640754 -1.6759450288455258 -0.36199302537879063 0 0 0
386 0 2 2.2208 10.864785520383528 12.269954270092455 -0.3645689499779756 0 0 0
388 0 2 2.2208 5.231237175711633 1.2725655961741122 16.53625510041907 0 0 0
389 0 1 -1.1104 0.9826097504647247 -3.005076504621786 17.799255673528847 0 0 0
390 0 1 -1.1104 1.0247596384332032 2.5309739494636627 17.982308021425194 0 0 0
393 0 1 -1.1104 0.95180185678924 -2.9387171318958756 14.998186365887785 0 0 0
395 0 1 -1.1104 0.9372391267249985 2.5792353966004704 14.891879717843967 0 0 0
401 0 1 -1.1104 0.9140960462584703 -0.29673293508485205 17.89481372379341 0 0 0
403 0 2 2.2208 5.224760440410299 -1.5248518788219374 19.291562229450886 0 0 0
404 0 2 2.2208 5.297906763853666 4.01525961181229 19.389732177741422 0 0 0
405 0 1 -1.1104 1.111229260284079 -0.21118056223092396 15.093022750289572 0 0 0
409 0 1 -1.1104 3.9162947550910543 -3.0137423444962894 17.68732496474076 0 0 0
410 0 1 -1.1104 3.8127257484785515 2.6005153945335437 17.930079663467478 0 0 0
411 0 2 2.2208 2.511692521235043 1.2207976869173383 19.22742753642791 0 0 0
412 0 1 -1.1104 3.674061514457651 -3.005031318095983 14.954512347510322 0 0 0
414 0 1 -1.1104 3.9128181144753333 2.678314900047875 15.099048648283466 0 0 0
416 0 2 2.2208 2.4055624453499305 -1.5724050258994429 16.41714688245979 0 0 0
418 0 1 -1.1104 3.794312043974383 -0.1879952808430938 17.79422181903847 0 0 0
419 0 1 -1.1104 3.8746470635643955 -0.23568247762813946 14.97329966185183 0 0 0
417 0 2 2.2208 2.4314369010063506 3.9551899269360606 16.56544486045316 0 0 0
391 0 1 -1.1104 6.699742741126682 -2.805905800621373 17.814475279708372 0 0 0
392 0 1 -1.1104 6.605559819225896 2.651414703830913 17.97520746486246 0 0 0
406 0 1 -1.1104 1.1116210806302027 -0.26116017166241645 20.644690027200333 0 0 0
399 0 1 -1.1104 6.670120617326228 2.629456760012053 14.986394950101065 0 0 0
407 0 1 -1.1104 6.619677895797136 -0.17400170446816834 15.141366079164145 0 0 0
9188 0 2 2.2208 5.396503857761513 -4.452455889586205 16.505911006723586 0 0 0
420 0 1 -1.1104 3.848136167422268 -0.21410201208714905 20.786856773121716 0 0 0
396 0 1 -1.1104 1.0215255170862116 2.5420153532151293 20.744926854015894 0 0 0
9187 0 2 2.2208 2.3131722652368847 -4.485503059828244 19.25029975630138 0 0 0
9122 0 2 2.2208 5.241731191811255 -4.439154697564959 21.9795715230075 0 0 0
397 0 1 -1.1104 6.702757845310275 -3.070357919851106 15.099398649932363 0 0 0
402 0 1 -1.1104 6.617077538650727 -0.12519172459019473 17.80063519563574 0 0 0
9158 0 2 2.2208 10.85891390346229 -4.3512612838877125 16.450628817465144 0 0 0
431 0 2 2.2208 10.810665535969964 1.1679156201596954 16.490752938431775 0 0 0
432 0 1 -1.1104 12.264159298830416 -3.0951453847152073 17.849573518263732 0 0 0
433 0 1 -1.1104 12.158768983720282 2.3815085718443987 17.95583452079271 0 0 0
434 0 1 -1.1104 12.258961907933044 -3.0631665679167215 15.081140124068119 0 0 0
436 0 1 -1.1104 12.39582740110305 2.453488467947456 15.088172174744738 0 0 0
438 0 1 -1.1104 12.2617507008373 -0.27936953614417864 17.760618484540284 0 0 0
439 0 2 2.2208 10.834791859730355 -1.728921807856216 19.062180821350957 0 0 0