ITEM: TIMESTEP
100000
ITEM: NUMBER OF ATOMS
17730
ITEM: BOX BOUNDS pp pp pp
-3.6298856466574203e-01 2.7702988564665528e+01
-4.4450529276295452e+00 3.3252505292762982e+02
-3.6011023773590717e-01 2.7700110237735664e+01
ITEM: ATOMS id type q x y z
1 2 2.2208 5.25999 1.2012 5.25948
2 1 -1.1104 1.1067 -3.11847 1.09472
3 1 -1.1104 1.02107 2.70788 1.03403
6 1 -1.1104 1.10519 -3.1367 3.69685
7 1 -1.1104 1.0678 2.64855 3.82913
10 1 -1.1104 1.15327 -0.145809 0.87575
12 2 2.2208 5.23021 -1.76221 2.34327
14 1 -1.1104 1.18205 -0.237293 3.70694
16 1 -1.1104 3.90173 -3.03789 0.983263
17 1 -1.1104 3.89799 2.66165 0.955094
18 2 2.2208 2.58205 1.20887 2.46384
19 1 -1.1104 3.98552 -3.19953 3.81844
20 1 -1.1104 3.89608 2.6247 3.80135
21 2 2.2208 2.56545 -1.72765 5.21217
23 1 -1.1104 3.82421 -0.230898 0.931949
24 1 -1.1104 3.93843 -0.137883 3.76005
22 2 2.2208 2.53334 4.07046 5.23705
13 2 2.2208 5.37563 4.00775 2.44688
170 1 -1.1104 1.08387 -0.182824 6.48355
166 1 -1.1104 1.07414 -3.09228 6.52056
172 1 -1.1104 3.8732 -3.14121 6.61582
15 1 -1.1104 6.62485 -0.0916855 3.86888
5 1 -1.1104 6.58794 2.45638 0.957498
168 1 -1.1104 6.64639 -3.12191 6.50892
8741 2 2.2208 -0.349927 3.97285 2.33804
25 2 2.2208 -0.277709 -1.60308 2.35645
174 1 -1.1104 3.83069 -0.376297 6.57761
173 1 -1.1104 3.90825 2.66791 6.55151
167 1 -1.1104 1.26802 2.69274 6.61807
169 1 -1.1104 6.57941 2.68167 6.53575
8738 2 2.2208 -0.260158 1.27013 5.0987
9 1 -1.1104 6.71387 2.75565 3.76961
11 1 -1.1104 6.70983 -0.423189 0.894853
8 1 -1.1104 6.86345 -2.8963 3.7061
4 1 -1.1104 6.6868 -3.09318 0.937034
31 2 2.2208 10.8589 1.08419 5.24802
32 1 -1.1104 12.2977 -2.91258 1.00976
33 1 -1.1104 12.216 2.6841 1.01908
34 1 -1.1104 12.3284 -3.02034 3.84441
35 1 -1.1104 12.211 2.53552 3.84068
36 1 -1.1104 12.3156 -0.0659062 1.0223
37 2 2.2208 10.9421 -1.51556 2.30854
38 2 2.2208 10.9119 4.08732 2.45647
39 1 -1.1104 12.3225 -0.213186 3.55776
40 1 -1.1104 9.51196 -3.06366 0.970455
41 1 -1.1104 9.49252 2.61778 1.19964
42 2 2.2208 8.07114 1.06271 2.43759
43 1 -1.1104 9.57031 -3.23109 3.68136
44 1 -1.1104 9.48979 2.50258 3.96247
45 2 2.2208 7.94172 -1.61121 5.21327
47 1 -1.1104 9.45997 -0.317335 0.931576
48 1 -1.1104 9.48317 -0.350688 3.73266
46 2 2.2208 8.12433 3.9969 5.19647
171 1 -1.1104 6.70148 -0.176092 6.58273
336 2 2.2208 10.8103 1.24068 -0.301867
207 1 -1.1104 12.3837 -0.32637 6.35864
210 1 -1.1104 9.41985 -0.388167 6.64051
205 1 -1.1104 12.3103 -3.01043 6.64493
208 1 -1.1104 9.29837 -3.13025 6.37946
597 2 2.2208 8.06586 4.03728 -0.272268
83 2 2.2208 -0.258246 12.3227 5.05572
54 2 2.2208 5.168 6.85032 5.17517
55 2 2.2208 5.20225 12.3984 5.32289
56 1 -1.1104 0.990068 8.27997 0.844222
58 1 -1.1104 1.04594 8.22977 3.60155
60 1 -1.1104 1.08283 5.50127 1.12263
61 1 -1.1104 1.02292 10.9412 1.10268
66 2 2.2208 5.25502 9.73647 2.51403
67 1 -1.1104 1.24408 5.54392 3.88931
68 1 -1.1104 1.01402 11.0918 3.77953
71 1 -1.1104 3.8409 8.22991 0.972289
72 2 2.2208 2.59192 6.74494 2.41787
73 2 2.2208 2.34929 12.3633 2.36161
74 1 -1.1104 3.90527 8.13857 3.76859
75 2 2.2208 2.37974 9.57129 5.14496
76 1 -1.1104 3.88422 5.24282 1.01333
77 1 -1.1104 3.79601 10.9752 1.01092
79 1 -1.1104 3.93563 5.44459 3.79542
80 1 -1.1104 3.72983 10.9927 3.77121
64 1 -1.1104 6.54133 11.0173 1.06869
8637 2 2.2208 -0.26594 6.81634 5.31007
234 1 -1.1104 1.01171 8.22612 6.54624
63 1 -1.1104 6.64288 5.40966 1.01954
70 1 -1.1104 6.58377 11.0425 3.8522
237 1 -1.1104 6.62678 5.41923 6.35572
235 1 -1.1104 6.56756 8.38482 6.57089
65 1 -1.1104 6.60942 11.1319 6.61096
236 1 -1.1104 1.01455 5.36814 6.61213
62 1 -1.1104 0.954601 10.9363 6.5238
631 2 2.2208 2.45657 9.61956 -0.323819
8601 2 2.2208 13.6545 6.75789 2.5201
57 1 -1.1104 6.68019 8.16447 1.05586
59 1 -1.1104 6.80702 8.38357 3.87697
69 1 -1.1104 6.73792 5.57947 3.84037
84 2 2.2208 10.8083 6.79791 5.23292
85 2 2.2208 10.7769 12.339 5.26307
86 1 -1.1104 12.2367 8.2349 1.08039
87 1 -1.1104 12.3567 8.17298 3.83131
88 1 -1.1104 12.3724 5.44489 1.01154
89 1 -1.1104 12.2852 10.9576 1.14326
91 2 2.2208 10.868 9.57605 2.45502
92 1 -1.1104 12.2292 5.41313 4.00135
93 1 -1.1104 12.24 10.9808 3.89713
94 1 -1.1104 9.58063 8.2754 0.920515
95 2 2.2208 8.03579 6.8898 2.45034
96 2 2.2208 8.00884 12.4153 2.38419
97 1 -1.1104 9.55476 8.14157 3.79766
98 2 2.2208 8.18394 9.61264 5.2475
99 1 -1.1104 9.38986 5.48461 1.15336
100 1 -1.1104 9.29545 10.9579 1.01842
102 1 -1.1104 9.46231 5.19057 3.76246
103 1 -1.1104 9.43389 10.8978 3.76689
269 1 -1.1104 9.48501 5.45086 6.4198
265 1 -1.1104 12.2396 8.12575 6.63184
267 1 -1.1104 9.48508 8.27094 6.62783
266 1 -1.1104 12.1631 5.39151 6.65225
101 1 -1.1104 9.34479 11.0302 6.59068
8470 2 2.2208 13.6017 9.53011 5.1775
656 2 2.2208 8.00692 9.56559 -0.315699
135 2 2.2208 -0.350518 15.252 2.37391
106 2 2.2208 5.32716 18.0101 5.16165
107 1 -1.1104 1.11909 13.7343 0.995183
109 1 -1.1104 1.16122 19.3783 0.992025
113 1 -1.1104 1.09777 13.7776 3.84284
114 1 -1.1104 1.16479 19.3662 3.83564
116 1 -1.1104 1.01257 16.4801 0.833275
119 2 2.2208 5.16222 15.119 2.41691
120 2 2.2208 5.39151 20.952 2.4075
121 1 -1.1104 1.13352 16.5466 3.72492
123 1 -1.1104 3.9116 13.8826 0.916839
125 1 -1.1104 3.8986 19.4271 0.914696
127 2 2.2208 2.59436 17.9933 2.34643
128 1 -1.1104 3.82888 13.8595 3.74337
129 1 -1.1104 4.048 19.5122 3.88374
130 2 2.2208 2.53488 15.1933 5.15136
131 2 2.2208 2.6611 20.7882 5.21103
132 1 -1.1104 3.80361 16.4878 0.999657
134 1 -1.1104 3.97934 16.7577 3.69242
115 1 -1.1104 6.46686 13.6943 3.74259
126 1 -1.1104 4.0791 19.422 6.60856
108 1 -1.1104 1.12421 13.9533 6.63905
133 1 -1.1104 3.7976 16.5651 6.48295
117 1 -1.1104 1.01294 16.7434 6.50942
302 1 -1.1104 1.37463 19.5054 6.52412
140 1 -1.1104 6.53322 16.5547 1.07081
110 1 -1.1104 6.62894 13.826 0.996168
111 1 -1.1104 6.61543 13.8814 6.57336
136 2 2.2208 -0.27089 20.8037 2.38066
137 2 2.2208 -0.264211 17.9848 5.13506
376 2 2.2208 5.19141 17.982 -0.339424
118 1 -1.1104 6.65778 16.6487 6.6083
145 1 -1.1104 12.2433 19.363 6.49561
122 1 -1.1104 6.67715 16.5768 3.80877
139 1 -1.1104 6.72418 19.5015 3.70081
138 1 -1.1104 6.70481 19.4093 1.01027
141 2 2.2208 10.8171 18.0572 5.12731
142 1 -1.1104 12.2213 13.76 0.948646
144 1 -1.1104 12.4372 19.3732 0.814173
146 1 -1.1104 12.1313 13.9193 3.91342
147 1 -1.1104 12.3822 19.5276 3.73673
148 1 -1.1104 12.3861 16.5466 0.835897
150 2 2.2208 10.8135 15.0716 2.34463
151 2 2.2208 10.9837 20.8469 2.33613
152 1 -1.1104 12.4076 16.7409 3.5805
153 1 -1.1104 9.44706 13.634 1.00541
155 1 -1.1104 9.61073 19.5459 0.817938
157 2 2.2208 8.01441 18.0944 2.28462
158 1 -1.1104 9.37229 13.6687 3.74161
159 1 -1.1104 9.43515 19.4295 3.7695
160 2 2.2208 8.07816 15.1862 5.12442
161 2 2.2208 8.18087 20.9243 5.20821
162 1 -1.1104 9.36987 16.4073 0.901658
164 1 -1.1104 9.50912 16.653 3.76395
143 1 -1.1104 12.2456 13.8979 6.593
154 1 -1.1104 9.50424 13.8364 6.61172
112 1 -1.1104 6.92749 19.5663 6.56075
149 1 -1.1104 12.0978 16.6028 6.31405
8539 2 2.2208 13.6049 15.216 5.10122
163 1 -1.1104 9.43543 16.6418 6.47879
156 1 -1.1104 9.48359 19.476 6.55053
8468 2 2.2208 -0.34455 4.02983 8.03372
312 2 2.2208 -0.308316 -1.59341 13.6324
8044 2 2.2208 -0.32221 -4.36583 10.7931
175 2 2.2208 5.25588 1.17317 10.8224
176 1 -1.1104 1.00851 -3.03723 12.1454
177 1 -1.1104 0.973574 2.59973 12.1963
180 1 -1.1104 1.0292 -2.94424 9.28987
181 1 -1.1104 0.927522 2.61079 9.38112
184 1 -1.1104 0.958416 -0.139243 12.0957
186 2 2.2208 5.20481 -1.72345 8.00953
188 1 -1.1104 0.953412 -0.19415 9.23282
190 1 -1.1104 3.80086 -2.98446 12.275
191 1 -1.1104 3.85318 2.59457 12.173
192 2 2.2208 2.42893 1.23591 7.9421
193 1 -1.1104 3.6985 -3.09597 9.46178
194 1 -1.1104 3.80056 2.65477 9.37681
195 2 2.2208 2.37319 -1.66303 10.8218
196 2 2.2208 2.35727 3.90073 10.7254
197 1 -1.1104 3.78283 -0.176995 12.2421
198 1 -1.1104 3.85044 -0.0919495 9.35936
187 2 2.2208 5.3544 3.96065 7.9943
182 1 -1.1104 6.52603 -3.17934 9.32249
178 1 -1.1104 6.53347 -3.05029 12.3318
189 1 -1.1104 6.61989 -0.265342 9.41336
179 1 -1.1104 6.61235 2.51158 12.1406
315 2 2.2208 5.21666 4.0305 13.5144
314 2 2.2208 2.4311 1.13508 13.5248
313 2 2.2208 5.07174 -1.66735 13.6267
206 1 -1.1104 12.1954 2.47 6.69646
17359 2 2.2208 13.5964 -4.40698 13.6498
319 2 2.2208 10.8214 3.99899 13.6075
185 1 -1.1104 6.66917 -0.217605 12.1795
8576 2 2.2208 13.6251 3.81725 10.8778
209 1 -1.1104 9.37526 2.38934 6.69632
183 1 -1.1104 6.75695 2.54393 9.46323
211 2 2.2208 10.8585 1.1528 10.833
212 1 -1.1104 12.2024 -3.27674 12.2725
213 1 -1.1104 12.2616 2.38475 12.2323
214 1 -1.1104 12.105 -2.88621 9.52676
215 1 -1.1104 12.3484 2.50536 9.51576
216 1 -1.1104 12.3217 -0.428529 12.1347
217 2 2.2208 10.6912 -1.76105 7.97062
219 1 -1.1104 12.1073 -0.249984 9.13913
220 1 -1.1104 9.43023 -2.9369 12.2189
221 1 -1.1104 9.35067 2.52402 12.2712
222 2 2.2208 8.06692 1.04076 8.0938
223 1 -1.1104 9.22263 -2.86644 9.28417
224 1 -1.1104 9.63471 2.51508 9.41196
225 2 2.2208 7.96957 -1.57599 10.8883
227 1 -1.1104 9.48636 -0.215102 12.2009
228 1 -1.1104 9.46502 -0.289202 9.44592
226 2 2.2208 7.98484 3.96453 10.8089
218 2 2.2208 10.8424 3.8183 8.01976
8442 2 2.2208 13.62 -1.76131 10.8411
317 2 2.2208 8.03237 1.22283 13.5493
8443 2 2.2208 13.5749 1.06568 8.00587
320 2 2.2208 2.33743 6.85522 13.5944
239 1 -1.1104 3.8813 5.49787 6.80228
78 1 -1.1104 3.71512 11.0756 6.65848
321 2 2.2208 5.2046 9.37571 13.6107
238 1 -1.1104 3.65376 8.36136 6.69583
240 2 2.2208 5.26313 6.86956 10.6716
241 2 2.2208 5.21779 12.4313 10.9195
242 1 -1.1104 0.989643 8.33973 12.3356
244 1 -1.1104 1.0228 8.10805 9.38678
246 1 -1.1104 1.00658 5.42132 12.0927
247 1 -1.1104 1.08306 11.0607 12.1539
250 2 2.2208 5.26489 9.70774 7.94332
251 1 -1.1104 1.01665 5.30518 9.31107
252 1 -1.1104 0.902055 11.051 9.41814
255 1 -1.1104 3.76474 8.14466 12.1
256 2 2.2208 2.50288 6.83885 7.9263
257 2 2.2208 2.29991 12.4748 8.05036
258 1 -1.1104 3.75259 8.20569 9.40658
259 2 2.2208 2.42136 9.59114 10.8715
260 1 -1.1104 3.73712 5.28254 12.2044
261 1 -1.1104 3.79114 10.9721 12.2744
262 1 -1.1104 3.80051 5.38119 9.4059
263 1 -1.1104 3.82907 11.0267 9.40249
248 1 -1.1104 6.51578 5.28005 12.0521
245 1 -1.1104 6.65273 8.19149 9.48903
249 1 -1.1104 6.64007 11.1235 12.1875
28 2 2.2208 -0.272694 9.64092 8.01964
29 2 2.2208 -0.33199 12.4562 10.8584
316 2 2.2208 -0.337221 9.59531 13.6193
8652 2 2.2208 13.6448 6.77118 8.11458
8657 2 2.2208 13.6299 9.69207 10.8356
90 1 -1.1104 12.1824 10.9339 6.66408
323 2 2.2208 8.05077 6.78938 13.5803
253 1 -1.1104 6.72741 5.47328 9.2961
254 1 -1.1104 6.71815 11.0471 9.46606
243 1 -1.1104 6.71358 8.21738 12.2597
264 1 -1.1104 9.49413 11.0803 9.45222
268 1 -1.1104 9.46958 5.31488 9.31021
270 1 -1.1104 9.47913 10.9875 12.2236
271 1 -1.1104 9.58937 5.39949 12.2296
272 2 2.2208 8.12543 9.67624 10.8566
273 1 -1.1104 9.52998 8.15014 9.25605
274 2 2.2208 8.0321 12.4217 8.02018
275 2 2.2208 8.11238 6.78834 7.91778
276 2 2.2208 10.9749 6.76778 10.6476
277 2 2.2208 10.874 12.519 10.72
278 1 -1.1104 12.2037 8.20347 12.1191
279 1 -1.1104 12.3792 8.19074 9.32461
280 1 -1.1104 12.3507 5.25169 12.1311
281 1 -1.1104 12.222 10.9844 12.2067
282 2 2.2208 11.0025 9.55916 8.05427
283 1 -1.1104 12.3129 5.24019 9.36957
284 1 -1.1104 12.3248 11.2041 9.36486
285 1 -1.1104 9.51074 8.32882 12.0108
8754 2 2.2208 13.6457 6.89114 13.595
8653 2 2.2208 13.5581 12.5119 7.96253
324 2 2.2208 10.9224 9.54054 13.5368
204 2 2.2208 -0.222462 17.9925 10.8236
124 1 -1.1104 3.84375 13.7192 6.69392
297 1 -1.1104 6.60519 13.9162 12.3545
203 2 2.2208 -0.326446 15.2074 7.92315
231 2 2.2208 -0.170164 20.8028 8.01624
232 2 2.2208 2.48526 15.24 10.8153
286 1 -1.1104 3.92799 19.5235 12.209
287 1 -1.1104 3.84625 13.8809 12.191
291 1 -1.1104 1.24304 19.3542 9.2335
292 1 -1.1104 1.27575 16.5993 9.32329
293 2 2.2208 5.44243 20.8587 7.94047
294 1 -1.1104 1.10646 13.8076 9.51578
295 2 2.2208 5.28674 15.3471 8.05804
298 1 -1.1104 0.987722 19.517 12.1403
299 1 -1.1104 1.05781 13.7236 12.34
300 2 2.2208 5.3644 18.0915 10.8038
301 1 -1.1104 3.90118 19.5715 9.39455
303 2 2.2208 2.58115 17.9956 7.95392
304 1 -1.1104 4.11591 16.9217 9.36628
305 1 -1.1104 3.9342 13.8585 9.41985
307 1 -1.1104 1.07675 16.5245 12.1857
308 1 -1.1104 3.87472 16.7398 12.143
309 2 2.2208 2.54236 20.9087 10.8017
310 2 2.2208 -0.281815 20.8537 13.5869
290 1 -1.1104 6.54761 13.9684 9.53508
327 2 2.2208 5.37669 20.853 13.6303
328 2 2.2208 5.28355 15.329 13.5693
53 1 -1.1104 12.2936 19.3707 9.36476
50 1 -1.1104 12.1993 14.0564 9.4314
296 1 -1.1104 6.82133 19.5213 12.196
52 1 -1.1104 9.38173 16.6325 12.2957
27 1 -1.1104 12.1902 13.9691 12.1406
230 1 -1.1104 9.45237 13.8971 9.34544
81 1 -1.1104 12.1604 16.743 12.1377
202 1 -1.1104 9.4302 16.7013 9.50131
306 1 -1.1104 6.65815 16.7585 12.1779
82 2 2.2208 10.9297 15.3069 7.981
49 1 -1.1104 12.493 19.5448 12.1889
105 1 -1.1104 12.3764 16.6253 9.25831
289 1 -1.1104 6.73272 16.6204 9.50971
288 1 -1.1104 6.70132 19.4592 9.32376
165 1 -1.1104 9.37712 13.7889 12.2263
26 2 2.2208 10.8317 18.0646 10.7792
233 1 -1.1104 9.6463 19.4786 9.28747
51 2 2.2208 8.26936 20.8013 10.8324
199 1 -1.1104 9.53912 19.2942 12.1098
30 2 2.2208 8.05262 15.2272 10.9723
229 2 2.2208 8.12615 18.0811 7.9825
104 2 2.2208 10.8846 20.8537 7.88626
329 2 2.2208 10.9108 20.8284 13.5208
330 2 2.2208 10.8447 15.2872 13.4971
338 2 2.2208 5.25221 1.15716 16.3923
339 1 -1.1104 0.866565 -3.09439 17.7388
340 1 -1.1104 1.1911 2.45376 17.6294
343 1 -1.1104 0.968949 -3.05508 14.9598
345 1 -1.1104 0.855425 2.52517 14.912
351 1 -1.1104 0.876537 -0.439975 17.7913
353 2 2.2208 5.25443 -1.71757 19.227
355 1 -1.1104 1.09296 -0.351187 14.9383
359 1 -1.1104 3.59833 -3.1099 17.7515
360 1 -1.1104 3.94097 2.53503 17.8812
361 2 2.2208 2.49791 1.18962 19.1879
362 1 -1.1104 3.77172 -2.94105 15.1332
364 1 -1.1104 3.7268 2.4051 15.1208
366 2 2.2208 2.51689 -1.70731 16.3789
367 2 2.2208 2.32879 3.95841 16.272
368 1 -1.1104 3.74305 -0.230648 17.9222
369 1 -1.1104 3.99504 -0.244551 15.0206
354 2 2.2208 5.36908 4.00838 19.2447
363 1 -1.1104 3.77996 -2.97551 20.5361
8841 2 2.2208 -0.35899 4.05654 19.1455
358 1 -1.1104 6.61104 -0.394452 20.5296
347 1 -1.1104 6.59812 -2.93364 15.0811
342 1 -1.1104 6.62449 2.48195 17.7571
349 1 -1.1104 6.65318 2.75479 14.9166
352 1 -1.1104 6.56563 -0.439247 17.6885
8138 2 2.2208 2.24953 -4.36132 19.0785
356 1 -1.1104 0.979175 -0.114554 20.4513
365 1 -1.1104 3.79934 2.58981 20.5674
344 1 -1.1104 1.00838 -2.97861 20.5982
346 1 -1.1104 1.18169 2.64504 20.4072
374 2 2.2208 -0.338195 0.943908 16.4118
370 1 -1.1104 3.77175 -0.263977 20.6689
341 1 -1.1104 6.71146 -3.20411 17.8575
8749 2 2.2208 13.6209 1.13563 13.6815
348 1 -1.1104 6.74653 -3.10353 20.6602
357 1 -1.1104 6.72139 -0.0974678 14.8938
381 2 2.2208 10.9682 1.0406 16.5635
382 1 -1.1104 12.2851 -3.09974 17.9679
383 1 -1.1104 12.3238 2.48796 17.8939
384 1 -1.1104 12.3704 -3.02199 15.0747
386 1 -1.1104 12.225 2.62233 15.008
388 1 -1.1104 12.2356 -0.336239 17.8862
389 2 2.2208 10.9998 -1.6982 19.1923
391 1 -1.1104 12.1909 -0.263606 15.0365
393 1 -1.1104 9.6372 -3.14003 17.7922
394 1 -1.1104 9.49957 2.44059 17.7651
395 2 2.2208 8.03294 1.07078 19.0825
396 1 -1.1104 9.41243 -3.01237 14.8592
398 1 -1.1104 9.45812 2.61355 14.9863
400 2 2.2208 7.98533 -1.67983 16.4054
402 1 -1.1104 9.50044 -0.309088 17.8587
403 1 -1.1104 9.40108 -0.180994 15.1351
401 2 2.2208 8.06522 3.95619 16.4497
390 2 2.2208 10.8076 3.92083 19.3278
350 1 -1.1104 6.80116 2.66353 20.5935
397 1 -1.1104 9.52009 -3.13301 20.5878
385 1 -1.1104 12.3405 -3.03086 20.5463
392 1 -1.1104 12.2948 -0.195038 20.6358
399 1 -1.1104 9.40679 2.50784 20.5047
404 1 -1.1104 9.47708 -0.168787 20.6701
318 2 2.2208 10.7123 -1.56113 13.6966
414 2 2.2208 5.1154 6.72117 16.374
415 2 2.2208 5.34365 12.3577 16.4599
416 1 -1.1104 0.989569 8.25966 17.927
418 1 -1.1104 1.02113 8.11862 15.0886
422 1 -1.1104 1.00727 5.26511 17.6833
423 1 -1.1104 0.955937 11.1688 18.0149
426 2 2.2208 5.20398 9.45277 19.285
427 1 -1.1104 0.926652 5.30329 14.9694
429 1 -1.1104 1.10418 10.9131 15.0792
435 1 -1.1104 3.77993 8.18246 17.7448
436 2 2.2208 2.40894 6.85716 19.1159
437 2 2.2208 2.56503 12.3461 19.214
438 1 -1.1104 3.74291 8.25312 14.9952
440 2 2.2208 2.35078 9.60259 16.4949
441 1 -1.1104 3.76622 5.50215 17.7757
442 1 -1.1104 3.85738 10.9285 17.8395
443 1 -1.1104 3.86708 5.36323 14.909
445 1 -1.1104 3.95244 10.9255 15.0381
420 1 -1.1104 6.55823 8.16273 15.0708
439 1 -1.1104 3.75364 8.14192 20.6542
446 1 -1.1104 3.96007 10.9031 20.5109
444 1 -1.1104 3.8159 5.4954 20.4611
424 1 -1.1104 6.65005 5.30164 17.846
428 1 -1.1104 1.13024 5.4595 20.5543
430 1 -1.1104 1.22539 10.9624 20.6639
419 1 -1.1104 0.956141 8.15412 20.6143
322 2 2.2208 2.4527 12.3651 13.714
433 1 -1.1104 6.67675 10.8039 15.1221
431 1 -1.1104 6.69539 5.39524 14.9551
425 1 -1.1104 6.67075 10.7522 17.8536
417 1 -1.1104 6.67616 8.08033 17.8961
450 2 2.2208 10.8479 6.78222 16.496
451 2 2.2208 10.899 12.2704 16.4535
452 1 -1.1104 12.2249 8.18354 17.9126
453 1 -1.1104 12.2159 8.19347 14.9513
455 1 -1.1104 12.2717 5.25508 17.721
456 1 -1.1104 12.2761 11.0093 17.841
457 2 2.2208 10.829 9.55751 19.3617
458 1 -1.1104 12.367 5.52236 15.062
460 1 -1.1104 12.3298 10.9265 14.943
462 1 -1.1104 9.53719 8.1413 17.9102
463 2 2.2208 8.03748 6.75612 19.3457
464 2 2.2208 8.17744 12.387 19.1335
465 1 -1.1104 9.45469 8.18753 14.9683
467 2 2.2208 8.12828 9.50299 16.5026
468 1 -1.1104 9.46271 5.34986 17.9995
469 1 -1.1104 9.49607 10.9055 17.8507
470 1 -1.1104 9.46664 5.36166 15.0954
472 1 -1.1104 9.60633 10.9194 15.058
461 1 -1.1104 12.2787 11.0359 20.684
473 1 -1.1104 9.62792 11.0991 20.6269
466 1 -1.1104 9.41394 8.22383 20.6804
8872 2 2.2208 13.5855 9.69487 16.4729
459 1 -1.1104 12.1361 5.41769 20.5658
325 2 2.2208 8.07139 12.3278 13.6851
373 2 2.2208 -0.287885 17.9934 16.4614
377 2 2.2208 -0.291192 15.2482 19.2805
326 2 2.2208 2.48672 18.0993 13.6977
477 2 2.2208 5.24974 18.0519 16.3508
478 1 -1.1104 1.19406 13.9143 17.9081
479 1 -1.1104 1.01645 19.2912 18.0036
482 1 -1.1104 0.99022 13.7339 15.2966
484 1 -1.1104 1.19666 19.6147 15.0971
490 1 -1.1104 1.21062 16.5306 17.8376
492 2 2.2208 5.31487 15.1344 19.3079
493 2 2.2208 5.21041 20.7815 19.1417
494 1 -1.1104 1.25161 16.6814 14.8963
498 1 -1.1104 4.00703 13.7004 17.8695
499 1 -1.1104 3.79052 19.4671 17.7376
500 2 2.2208 2.51268 17.948 19.2424
501 1 -1.1104 3.89268 13.6665 15.1344
503 1 -1.1104 3.94756 19.501 14.9313
505 2 2.2208 2.50659 15.1896 16.466
506 2 2.2208 2.52339 20.8701 16.4284
507 1 -1.1104 3.8959 16.4808 17.7187
508 1 -1.1104 3.8263 16.6209 15.0309
495 1 -1.1104 1.07997 16.642 20.6179
502 1 -1.1104 3.8815 13.7314 20.6557
485 1 -1.1104 1.11329 19.3451 20.6375
491 1 -1.1104 6.59067 16.5589 17.7364
496 1 -1.1104 6.6159 16.6626 14.9714
486 1 -1.1104 6.57595 13.7892 14.9661
504 1 -1.1104 3.96264 19.4888 20.5322
311 2 2.2208 -0.263527 15.2466 13.7456
487 1 -1.1104 6.68047 13.8203 20.4294
481 1 -1.1104 6.70086 19.3271 17.7981
489 1 -1.1104 6.75311 19.4503 20.4884
488 1 -1.1104 6.74019 19.4412 15.1229
480 1 -1.1104 6.91476 13.5818 17.7105
513 2 2.2208 10.9364 18.0308 16.4098
514 1 -1.1104 12.3657 13.833 17.6585
515 1 -1.1104 12.4251 19.3694 17.9139
516 1 -1.1104 12.4048 13.7496 15.0298
518 1 -1.1104 12.4502 19.3562 15.1317
520 1 -1.1104 12.2021 16.6315 17.7835
521 2 2.2208 10.9806 15.3559 19.1586
522 2 2.2208 10.9196 20.9326 19.2237
523 1 -1.1104 12.4065 16.6484 14.8717
525 1 -1.1104 9.5665 13.8835 17.8565
526 1 -1.1104 9.44972 19.4861 17.7207
527 2 2.2208 8.14294 18.068 19.1383
528 1 -1.1104 9.6398 13.6907 14.9131
530 1 -1.1104 9.62293 19.3843 14.8166
532 2 2.2208 7.96673 15.0766 16.4291
533 2 2.2208 8.08353 20.8044 16.4755
534 1 -1.1104 9.44653 16.7673 17.6899
535 1 -1.1104 9.515 16.4305 14.9815
524 1 -1.1104 12.243 16.7984 20.4476
536 1 -1.1104 9.46969 16.6355 20.5315
497 1 -1.1104 6.654 16.6068 20.6359
531 1 -1.1104 9.46996 19.4425 20.5326
529 1 -1.1104 9.4847 13.8141 20.569
517 1 -1.1104 12.238 13.9137 20.4107
331 2 2.2208 8.05407 18.0416 13.7252
332 2 2.2208 5.24821 1.10524 27.583
8101 2 2.2208 2.39806 -4.37115 24.6862
9020 2 2.2208 -0.343617 1.25929 21.9859
9017 2 2.2208 -0.341254 4.05326 24.6969
541 2 2.2208 5.197 1.10617 22.0395
542 1 -1.1104 0.946911 -3.01564 23.4447
543 1 -1.1104 1.01886 2.60942 23.2617
546 1 -1.1104 1.0665 -3.09645 26.3047
547 1 -1.1104 1.01094 2.64466 26.2582
550 1 -1.1104 1.07136 -0.0789372 23.3913
552 2 2.2208 5.26882 -1.75044 24.7156
554 1 -1.1104 0.927113 -0.170079 26.1705
556 1 -1.1104 3.93824 -3.00386 23.2571
557 1 -1.1104 3.75484 2.62077 23.3255
558 2 2.2208 2.46269 1.29816 24.7286
559 1 -1.1104 3.90756 -2.91574 26.1419
560 1 -1.1104 3.82589 2.65258 26.1774
561 2 2.2208 2.43166 -1.57366 21.9609
562 2 2.2208 2.42539 4.03054 21.8137
563 1 -1.1104 3.8853 -0.143602 23.3944
564 1 -1.1104 3.79978 -0.110046 26.0715
553 2 2.2208 5.18899 3.90278 24.804
555 1 -1.1104 6.5236 -0.137758 26.1724
545 1 -1.1104 6.5685 2.5685 23.308
549 1 -1.1104 6.62558 2.47175 26.12
551 1 -1.1104 6.55469 -0.334494 23.3706
333 2 2.2208 2.38705 -1.5462 27.5418
334 2 2.2208 2.48756 3.99651 27.6973
8053 2 2.2208 5.26243 -4.36722 27.5637
8099 2 2.2208 8.22832 -4.42566 24.803
8100 2 2.2208 11.0005 -4.42717 22.0531
548 1 -1.1104 6.8396 -3.07513 26.2264
387 1 -1.1104 12.2844 2.41858 20.7014
544 1 -1.1104 6.83725 -3.09767 23.4928
577 2 2.2208 10.7847 1.17503 22.0697
578 1 -1.1104 12.4226 -2.95147 23.4808
579 1 -1.1104 12.4323 2.46064 23.3743
580 1 -1.1104 12.323 -2.91805 26.3943
581 1 -1.1104 12.3487 2.54552 26.2766
582 1 -1.1104 12.3173 -0.294766 23.4014
583 2 2.2208 10.8903 -1.50663 24.7386
585 1 -1.1104 12.3021 -0.0462916 26.2608
586 1 -1.1104 9.65908 -3.12071 23.3588
587 1 -1.1104 9.47166 2.62543 23.579
588 2 2.2208 7.94198 1.15116 24.8135
589 1 -1.1104 9.66627 -2.9143 26.197
590 1 -1.1104 9.42857 2.81442 26.3994
591 2 2.2208 8.16672 -1.60863 22.0457
593 1 -1.1104 9.35512 -0.313551 23.4831
594 1 -1.1104 9.50594 0.000463775 26.2127
592 2 2.2208 7.94881 4.07261 22.1299
584 2 2.2208 10.8483 4.01422 24.8965
8050 2 2.2208 11.0228 -4.42223 27.6074
337 2 2.2208 8.17655 -1.71478 27.6334
632 2 2.2208 5.26838 12.4447 27.6041
630 2 2.2208 5.30664 6.83972 27.6919
635 2 2.2208 -0.34704 12.3922 22.132
634 2 2.2208 -0.309414 9.67362 24.9285
606 2 2.2208 5.25322 6.70348 22.1057
607 2 2.2208 5.46351 12.2875 21.9539
608 1 -1.1104 0.850877 8.37427 23.3851
610 1 -1.1104 1.07811 8.27938 26.2586
612 1 -1.1104 0.953545 5.47425 23.3466
613 1 -1.1104 1.0528 10.9821 23.568
616 2 2.2208 5.31144 9.55889 24.8203
617 1 -1.1104 1.0207 5.48556 26.2162
618 1 -1.1104 1.06098 10.9572 26.3716
621 1 -1.1104 3.77656 8.13621 23.5043
622 2 2.2208 2.37891 6.79986 24.7892
623 2 2.2208 2.54827 12.3716 24.8489
624 1 -1.1104 3.94397 8.25659 26.2755
625 2 2.2208 2.50195 9.50361 22.0345
626 1 -1.1104 3.79417 5.32664 23.4238
627 1 -1.1104 3.91582 11.0089 23.3465
628 1 -1.1104 3.93275 5.39531 26.2027
629 1 -1.1104 3.94272 11.0716 26.2564
432 1 -1.1104 6.59455 5.47128 20.694
611 1 -1.1104 6.60664 8.05966 26.2267
614 1 -1.1104 6.57368 5.36692 23.4242
434 1 -1.1104 6.80843 10.957 20.778
421 1 -1.1104 6.66496 8.14924 20.6992
454 1 -1.1104 12.2512 8.22699 20.7123
657 2 2.2208 10.7713 12.2816 27.6615
655 2 2.2208 10.8584 6.79671 27.6853
620 1 -1.1104 6.75076 11.0878 26.1886
471 1 -1.1104 9.36868 5.33763 20.846
619 1 -1.1104 6.74156 5.26914 26.3285
615 1 -1.1104 6.69042 11.0193 23.4971
609 1 -1.1104 6.693 8.09382 23.4419
637 1 -1.1104 9.51846 10.9394 26.2221
638 1 -1.1104 9.44686 5.57696 26.3048
639 1 -1.1104 9.57629 10.9851 23.3412
640 1 -1.1104 9.46711 5.37529 23.567
641 2 2.2208 8.05069 9.52821 22.0479
642 1 -1.1104 9.29485 8.25237 26.3421
643 2 2.2208 8.16988 12.4074 24.8462
644 2 2.2208 8.03649 6.76323 24.8781
645 2 2.2208 10.9262 6.65682 22.1265
646 2 2.2208 10.8909 12.3627 22.0528
647 1 -1.1104 12.3102 8.12033 23.4421
648 1 -1.1104 12.2639 8.21116 26.3124
649 1 -1.1104 12.2711 5.21781 23.3968
650 1 -1.1104 12.2504 10.9064 23.5878
651 2 2.2208 10.941 9.484 24.7609
652 1 -1.1104 12.2621 5.48954 26.3059
653 1 -1.1104 12.4475 10.9011 26.3026
654 1 -1.1104 9.3403 8.15976 23.4599
8797 2 2.2208 13.6278 6.89123 24.9298
372 2 2.2208 2.49372 15.1789 27.6408
601 2 2.2208 -0.30091 18.2293 27.5624
8796 2 2.2208 -0.16855 20.9308 24.8754
378 2 2.2208 2.57277 20.8472 27.6368
371 2 2.2208 -0.240822 15.1829 24.8462
483 1 -1.1104 1.03692 13.9141 20.7961
509 1 -1.1104 3.97402 16.5586 20.7277
599 2 2.2208 -0.244358 17.949 22.0744
447 1 -1.1104 3.74899 16.6364 26.3324
413 1 -1.1104 3.94814 13.8107 26.1662
411 1 -1.1104 1.15535 16.7098 23.3834
407 1 -1.1104 3.8438 16.6285 23.4195
380 2 2.2208 2.48491 20.7205 21.9838
379 2 2.2208 2.49683 15.2666 22.0117
512 2 2.2208 5.36596 20.871 24.8535
475 1 -1.1104 1.13397 13.7723 23.4758
474 2 2.2208 5.37464 18.0713 21.9781
449 1 -1.1104 3.98095 19.3446 26.2384
448 2 2.2208 2.47335 18.0419 24.798
511 2 2.2208 5.36132 15.1772 24.7988
476 1 -1.1104 1.06647 19.6369 23.3415
567 1 -1.1104 3.8264 13.906 23.4159
565 1 -1.1104 1.23972 19.4884 26.1057
539 1 -1.1104 1.008 16.6672 26.2098
538 1 -1.1104 1.17172 13.7818 26.2373
595 1 -1.1104 3.99041 19.3631 23.3449
375 2 2.2208 8.01334 15.1436 27.6219
409 2 2.2208 8.1401 20.873 27.601
8844 2 2.2208 13.6592 15.1671 21.98
519 1 -1.1104 12.2883 19.5597 20.686
598 2 2.2208 11.0473 20.8559 24.7653
573 1 -1.1104 12.1956 13.7415 26.2055
572 1 -1.1104 9.3724 16.5561 26.2991
575 1 -1.1104 12.3537 16.6138 23.3548
576 2 2.2208 10.8861 15.2217 24.8694
540 1 -1.1104 12.4481 13.6463 23.2297
602 1 -1.1104 12.3643 16.7083 26.0759
510 1 -1.1104 6.76244 13.8625 23.165
603 1 -1.1104 9.62768 13.8562 23.4561
636 1 -1.1104 9.55691 13.8398 26.2921
633 1 -1.1104 6.86187 19.3979 26.2788
574 1 -1.1104 12.3656 19.4889 26.0983
658 1 -1.1104 9.54761 19.4348 25.9845
605 2 2.2208 8.21479 18.078 24.7846
569 1 -1.1104 12.3317 19.2943 23.4775
659 2 2.2208 8.16144 15.2925 21.9379
600 1 -1.1104 9.50822 16.6021 23.4391
566 1 -1.1104 6.6969 16.6029 26.0893
412 1 -1.1104 6.69121 16.5833 23.2917
596 2 2.2208 8.14615 20.8998 21.9974
410 2 2.2208 10.8219 18.052 21.9461
571 1 -1.1104 6.76144 13.7773 26.1857
604 1 -1.1104 9.50768 19.4469 23.2539
537 1 -1.1104 6.83778 19.3986 23.4341
405 2 2.2208 10.9476 17.9416 27.4962
660 2 2.2208 5.40661 23.6468 5.04389
661 2 2.2208 5.3316 29.295 5.17496
662 1 -1.1104 1.21745 24.9466 0.955718
663 1 -1.1104 1.09405 25.0845 3.73606
664 1 -1.1104 0.942701 22.2147 0.954374
665 1 -1.1104 1.23023 27.8567 1.07724
666 2 2.2208 5.36065 26.4211 2.32475
667 1 -1.1104 1.34922 22.2581 3.78322
668 1 -1.1104 1.28506 27.8645 3.791
669 1 -1.1104 3.8715 25.0045 0.992968
670 2 2.2208 2.5526 23.737 2.46015
671 2 2.2208 2.58753 29.2264 2.39923
672 1 -1.1104 4.01492 25.0545 3.71816
673 2 2.2208 2.48449 26.4157 5.14776
674 1 -1.1104 3.79013 22.1577 0.999919
675 1 -1.1104 3.83923 27.839 0.891598
676 1 -1.1104 4.01792 22.3803 3.75802
677 1 -1.1104 3.94784 27.9124 3.67713
801 1 -1.1104 1.04411 25.114 6.49744
804 1 -1.1104 1.20479 28.0027 6.51163
807 1 -1.1104 3.7899 24.929 6.48147
808 1 -1.1104 4.16681 22.0927 6.54108
678 2 2.2208 -0.247905 29.3204 5.19053
679 2 2.2208 -0.259643 23.6859 5.29218
680 2 2.2208 -0.272837 26.535 2.47803
809 1 -1.1104 4.05538 27.791 6.60742
1211 2 2.2208 5.33698 23.762 -0.341665
686 1 -1.1104 6.74788 27.8489 3.77849
684 1 -1.1104 6.67162 27.8119 1.06771
681 1 -1.1104 6.76958 25.0439 0.941447
685 1 -1.1104 6.76482 22.2478 3.80693
683 1 -1.1104 6.76862 22.2298 1.11386
682 1 -1.1104 6.76407 25.0431 3.69031
687 2 2.2208 10.918 23.6399 5.12094
688 2 2.2208 10.9974 29.2065 5.21167
689 1 -1.1104 12.3852 25.0403 1.06101
690 1 -1.1104 12.3928 25.0552 3.83436
691 1 -1.1104 12.3066 22.2635 0.988665
692 1 -1.1104 12.474 27.8678 0.922367
693 2 2.2208 10.9704 26.5418 2.46409
694 1 -1.1104 12.2506 22.304 3.78659
695 1 -1.1104 12.455 28.1123 3.80535
696 1 -1.1104 9.51629 25.0839 0.978388
697 2 2.2208 8.14603 23.6358 2.35805
698 2 2.2208 8.03918 29.2842 2.49893
699 1 -1.1104 9.46807 25.0796 3.93836
700 2 2.2208 8.10291 26.5357 5.27766
701 1 -1.1104 9.46671 22.4034 0.885939
702 1 -1.1104 9.55563 27.8215 1.0737
703 1 -1.1104 9.48598 22.1657 3.59584
704 1 -1.1104 9.55158 27.8142 3.88548
836 1 -1.1104 12.4918 27.9384 6.53694
837 1 -1.1104 9.54126 24.9898 6.54837
834 1 -1.1104 12.3859 25.2355 6.63459
838 1 -1.1104 9.63433 22.2445 6.45545
835 1 -1.1104 12.2899 22.2058 6.47793
805 1 -1.1104 6.89087 22.3587 6.52731
802 1 -1.1104 6.76384 25.1619 6.51698
839 1 -1.1104 9.55766 27.8029 6.6077
708 2 2.2208 5.37948 35.0002 5.31322
709 1 -1.1104 1.26975 30.4848 0.802357
710 1 -1.1104 1.05005 36.1472 1.0226
712 1 -1.1104 1.11712 30.7419 3.72121
713 1 -1.1104 1.11771 36.3522 3.78471
715 1 -1.1104 1.24866 33.1863 1.06586
716 2 2.2208 5.21442 32.1866 2.40468
717 2 2.2208 5.33043 37.8037 2.43098
718 1 -1.1104 1.11833 33.4941 3.71671
720 1 -1.1104 3.99254 30.8416 1.02188
721 1 -1.1104 4.05295 36.253 1.04474
722 2 2.2208 2.47425 34.8708 2.41314
723 1 -1.1104 3.94361 30.6626 3.78094
724 1 -1.1104 3.83469 36.2928 3.93513
725 2 2.2208 2.49414 32.0929 5.17993
726 2 2.2208 2.48566 37.7595 5.19598
727 1 -1.1104 3.89971 33.5371 1.0353
728 1 -1.1104 3.9732 33.5889 3.92238
9426 2 2.2208 -0.298909 32.0223 2.33675
9425 2 2.2208 -0.209629 37.7394 2.48429
731 2 2.2208 -0.287491 34.847 5.29769
714 1 -1.1104 6.63681 36.3326 3.97951
858 1 -1.1104 1.03571 30.8067 6.64406
859 1 -1.1104 1.03421 36.2613 6.62446
862 1 -1.1104 1.04269 33.4604 6.5166
864 1 -1.1104 3.70822 30.6051 6.54914
1272 2 2.2208 5.32542 34.9747 -0.223816
719 1 -1.1104 6.82923 33.6296 3.93106
734 1 -1.1104 6.77941 33.4974 1.19906
711 1 -1.1104 6.78914 36.4164 1.16325
732 1 -1.1104 6.68456 30.7012 1.06419
733 1 -1.1104 6.67776 30.764 3.7648
744 1 -1.1104 9.40675 30.6766 1.10942
735 2 2.2208 10.8586 35.0421 5.21321
736 1 -1.1104 12.1914 30.5671 1.21526
737 1 -1.1104 12.4066 36.2952 1.08932
738 1 -1.1104 12.3403 30.9212 4.00234
739 1 -1.1104 12.3159 36.5451 3.87542
740 1 -1.1104 12.2364 33.4512 1.07563
741 2 2.2208 10.8918 32.0476 2.62482
742 2 2.2208 10.9537 37.7932 2.48633
743 1 -1.1104 12.3578 33.7104 3.96942
745 1 -1.1104 9.60748 36.3636 1.21415
746 2 2.2208 8.06977 34.9492 2.45023
747 1 -1.1104 9.53692 30.6172 3.95038
748 1 -1.1104 9.4017 36.3213 3.96785
749 2 2.2208 8.19173 32.1618 5.2048
750 2 2.2208 8.1189 37.7935 5.35995
751 1 -1.1104 9.44928 33.571 1.07366