ITEM: TIMESTEP
40000
ITEM: NUMBER OF ATOMS
17730
ITEM: BOX BOUNDS pp pp pp
-3.6254771076657172e-01 2.7702547710766567e+01
-4.3777751609052054e+00 3.3245777516090794e+02
-3.6047987501821088e-01 2.7700479875017830e+01
ITEM: ATOMS id type q x y z
1 2 2.2208 5.14547 1.23244 5.27845
2 1 -1.1104 0.896257 -2.83122 1.05632
3 1 -1.1104 0.778019 2.77132 1.01351
6 1 -1.1104 0.984521 -3.0266 3.94258
7 1 -1.1104 0.945415 2.50674 3.80149
10 1 -1.1104 0.93433 -0.0142137 1.14641
12 2 2.2208 5.16631 -1.43319 2.58343
14 1 -1.1104 0.864801 -0.188567 3.93326
16 1 -1.1104 3.65928 -2.99943 1.18201
17 1 -1.1104 3.61693 2.66444 0.97164
18 2 2.2208 2.20713 1.34177 2.33315
19 1 -1.1104 3.76798 -2.85682 3.94908
20 1 -1.1104 3.68037 2.7631 3.74787
21 2 2.2208 2.24596 -1.506 5.36801
22 2 2.2208 2.35788 4.06847 5.25757
23 1 -1.1104 3.65015 -0.179198 1.16376
24 1 -1.1104 3.73051 0.051602 3.90726
13 2 2.2208 4.9189 4.11699 2.36168
5 1 -1.1104 6.51122 2.68838 1.2299
15 1 -1.1104 6.60522 -0.0985485 3.94059
8743 2 2.2208 13.6153 -1.51293 5.12494
17348 2 2.2208 13.5466 -4.26261 8.11981
8040 2 2.2208 7.8538 -4.32578 2.3348
8 1 -1.1104 6.61351 -2.9293 3.86253
11 1 -1.1104 6.57067 -0.0637906 1.33667
4 1 -1.1104 6.4995 -2.99882 1.00986
8469 2 2.2208 13.6009 18.0347 2.39884
173 1 -1.1104 3.87903 2.58756 6.66421
174 1 -1.1104 3.74803 -0.251573 6.77504
9 1 -1.1104 6.57106 2.7522 4.04492
8038 2 2.2208 5.21366 -4.30633 5.33796
8045 2 2.2208 7.87229 -4.24387 8.08638
31 2 2.2208 10.7685 1.26679 5.24189
32 1 -1.1104 12.1886 -2.90703 0.95809
33 1 -1.1104 12.175 2.54142 1.07996
34 1 -1.1104 12.2569 -3.13839 3.7756
35 1 -1.1104 12.3448 2.51064 3.96549
36 1 -1.1104 12.2312 -0.0900968 0.978197
37 2 2.2208 10.7072 -1.42843 2.4397
38 2 2.2208 10.8048 4.05768 2.49963
39 1 -1.1104 12.2147 -0.301671 3.79321
40 1 -1.1104 9.27729 -2.79638 1.14378
41 1 -1.1104 9.28029 2.71692 1.12475
42 2 2.2208 7.97012 1.29236 2.60506
43 1 -1.1104 9.41424 -2.96108 3.94293
44 1 -1.1104 9.30646 2.69179 3.93238
45 2 2.2208 7.87805 -1.448 5.30381
46 2 2.2208 7.92961 4.05818 5.34321
47 1 -1.1104 9.53228 0.0219328 0.967849
48 1 -1.1104 9.34665 -0.140425 3.92479
8742 2 2.2208 13.6584 1.19007 2.30338
8441 2 2.2208 13.5944 3.95471 5.23296
631 2 2.2208 2.38956 9.67796 -0.241274
105 1 -1.1104 12.1679 16.8145 9.41383
318 2 2.2208 10.86 -1.60636 13.6606
205 1 -1.1104 12.1345 -2.95028 6.71094
208 1 -1.1104 9.3138 -2.89558 6.80551
8749 2 2.2208 13.5312 1.26523 13.5519
199 1 -1.1104 9.47508 19.4637 12.2279
8043 2 2.2208 5.08622 -4.32884 11.0016
8442 2 2.2208 13.5276 -1.4725 10.9883
8576 2 2.2208 13.3717 4.24237 10.6617
54 2 2.2208 5.18677 6.78793 5.27173
55 2 2.2208 5.20579 12.3943 5.23123
56 1 -1.1104 0.933805 8.4464 1.11595
58 1 -1.1104 0.905513 8.33653 3.89228
60 1 -1.1104 0.933004 5.49062 1.04279
61 1 -1.1104 0.858854 11.0578 1.12292
66 2 2.2208 5.12009 9.647 2.4443
67 1 -1.1104 0.961836 5.43201 3.78823
68 1 -1.1104 0.942562 11.1081 3.87994
71 1 -1.1104 3.72231 8.23513 1.13157
72 2 2.2208 2.27546 6.81967 2.39013
73 2 2.2208 2.40929 12.5832 2.56426
74 1 -1.1104 3.60701 8.20742 3.98746
75 2 2.2208 2.22339 9.62553 5.32623
76 1 -1.1104 3.64909 5.63182 0.874561
77 1 -1.1104 3.77384 11.1804 1.05607
79 1 -1.1104 3.6925 5.41921 3.79707
80 1 -1.1104 3.6989 11.0521 3.92926
70 1 -1.1104 6.60499 11.0996 3.95433
69 1 -1.1104 6.76264 5.44363 3.88021
63 1 -1.1104 6.41617 5.52747 1.10802
59 1 -1.1104 6.45097 8.23947 3.8692
64 1 -1.1104 6.54018 11.0902 1.23078
62 1 -1.1104 0.833156 11.2018 6.79094
57 1 -1.1104 6.58139 8.21046 1.00847
8842 2 2.2208 13.5293 15.221 -0.340411
239 1 -1.1104 3.82652 5.41438 6.55178
237 1 -1.1104 6.53208 5.41434 6.69182
229 2 2.2208 7.94343 18.2018 8.05442
30 2 2.2208 7.93441 15.2931 10.8489
233 1 -1.1104 9.40246 19.6514 9.49191
8601 2 2.2208 13.6455 6.90687 2.42135
84 2 2.2208 10.8487 6.83029 5.2391
85 2 2.2208 10.8266 12.4338 5.25329
86 1 -1.1104 12.2513 8.23497 0.992274
87 1 -1.1104 12.2967 8.16573 3.89899
88 1 -1.1104 12.1753 5.40356 1.15118
89 1 -1.1104 12.2877 10.8814 1.066
91 2 2.2208 10.8178 9.61536 2.52959
92 1 -1.1104 12.2173 5.29592 3.77771
93 1 -1.1104 12.2457 10.9469 3.82437
94 1 -1.1104 9.28947 8.21995 1.12989
95 2 2.2208 7.97018 6.94086 2.50901
96 2 2.2208 7.95313 12.4547 2.62462
97 1 -1.1104 9.4558 8.3247 4.05368
98 2 2.2208 7.91006 9.52521 5.30191
99 1 -1.1104 9.47907 5.44074 1.07339
100 1 -1.1104 9.3408 10.985 1.00812
102 1 -1.1104 9.46059 5.5568 3.67273
103 1 -1.1104 9.4402 11.0754 3.88061
8602 2 2.2208 13.63 12.3972 2.47498
265 1 -1.1104 12.161 8.25811 6.60008
269 1 -1.1104 9.35648 5.51383 6.50427
90 1 -1.1104 12.1426 10.9446 6.62883
8470 2 2.2208 13.6166 9.66637 5.2962
657 2 2.2208 10.8183 12.376 -0.266548
8037 2 2.2208 2.24525 -4.29014 2.4901
8740 2 2.2208 13.4886 18.1632 8.13634
8046 2 2.2208 10.7993 -4.33085 10.9057
53 1 -1.1104 12.0844 19.5645 9.41335
106 2 2.2208 5.19947 18.0846 5.32544
107 1 -1.1104 0.913568 13.8335 1.24148
109 1 -1.1104 0.97047 19.5351 1.0388
113 1 -1.1104 0.835744 13.9549 4.02159
114 1 -1.1104 0.903478 19.5444 3.97165
116 1 -1.1104 1.03398 16.5772 1.18369
119 2 2.2208 5.06477 15.4372 2.40483
120 2 2.2208 5.19926 20.8127 2.40978
121 1 -1.1104 0.934956 16.8649 4.00119
123 1 -1.1104 3.76488 13.9209 1.05816
125 1 -1.1104 3.80049 19.4652 1.04355
127 2 2.2208 2.39782 18.1139 2.53346
128 1 -1.1104 3.7769 14.0384 3.7781
129 1 -1.1104 3.7727 19.5187 3.85175
130 2 2.2208 2.35857 15.3718 5.22735
131 2 2.2208 2.1963 20.9911 5.27474
132 1 -1.1104 3.75844 16.7428 0.958363
134 1 -1.1104 3.68925 16.7999 3.80291
140 1 -1.1104 6.62152 16.7549 1.16786
139 1 -1.1104 6.58796 19.4687 3.90561
110 1 -1.1104 6.61106 13.9035 1.2189
122 1 -1.1104 6.59233 16.7514 3.90803
111 1 -1.1104 6.5591 14.0237 6.67975
290 1 -1.1104 6.55354 13.9497 9.41637
51 2 2.2208 8.02943 20.9522 10.8947
656 2 2.2208 7.93555 9.80393 -0.348211
8739 2 2.2208 13.6179 15.3848 10.9278
8518 2 2.2208 13.6373 20.8269 5.36572
376 2 2.2208 5.18461 18.156 -0.319363
115 1 -1.1104 6.62483 13.9291 3.97344
154 1 -1.1104 9.40155 13.8319 6.7318
138 1 -1.1104 6.59275 19.4084 0.998117
141 2 2.2208 10.8823 18.0409 5.26026
142 1 -1.1104 12.201 13.753 1.0913
144 1 -1.1104 12.1639 19.5218 0.984816
146 1 -1.1104 12.3601 13.7982 3.71113
147 1 -1.1104 12.1771 19.4702 3.84485
148 1 -1.1104 12.1756 16.6858 1.01311
150 2 2.2208 10.8718 15.2921 2.46748
151 2 2.2208 10.8134 20.8709 2.46988
152 1 -1.1104 12.2593 16.6894 3.77952
153 1 -1.1104 9.38699 13.6655 1.1269
155 1 -1.1104 9.31397 19.4896 1.04967
157 2 2.2208 7.96131 18.1817 2.56191
158 1 -1.1104 9.53269 13.8808 3.96677
159 1 -1.1104 9.51457 19.5041 4.03507
160 2 2.2208 8.03065 15.268 5.25715
161 2 2.2208 7.97823 20.9324 5.18024
162 1 -1.1104 9.47553 16.6252 0.982875
164 1 -1.1104 9.3376 16.6791 3.78194
112 1 -1.1104 6.50033 19.463 6.71573
149 1 -1.1104 12.3713 16.7347 6.62334
143 1 -1.1104 12.1853 13.7426 6.58967
325 2 2.2208 7.7978 12.4421 13.6466
169 1 -1.1104 6.66334 2.66085 6.71699
324 2 2.2208 10.6623 9.66916 13.5572
172 1 -1.1104 3.63034 -3.00289 6.88389
170 1 -1.1104 0.899032 0.0133903 6.73616
167 1 -1.1104 1.17843 2.70787 6.8574
166 1 -1.1104 0.878026 -2.90291 6.61046
175 2 2.2208 5.23402 1.34815 10.874
176 1 -1.1104 0.910603 -2.69821 12.3018
177 1 -1.1104 0.87065 2.70522 12.2401
180 1 -1.1104 0.888526 -3.03307 9.36629
181 1 -1.1104 0.904435 2.63925 9.46226
184 1 -1.1104 1.02889 0.0522523 12.382
186 2 2.2208 5.08252 -1.62553 8.12586
188 1 -1.1104 1.06932 -0.139159 9.57348
190 1 -1.1104 3.7595 -2.9118 12.3446
191 1 -1.1104 3.74785 2.66355 12.1414
192 2 2.2208 2.49386 1.1796 8.09441
193 1 -1.1104 3.69706 -3.07274 9.52965
194 1 -1.1104 3.79432 2.65386 9.37416
195 2 2.2208 2.28835 -1.54696 10.8832
196 2 2.2208 2.38002 4.00456 10.8643
197 1 -1.1104 3.79912 -0.161526 12.267
198 1 -1.1104 3.86565 -0.189821 9.51086
187 2 2.2208 5.1332 4.12438 8.0643
185 1 -1.1104 6.60071 -0.0606298 12.15
168 1 -1.1104 6.47208 -2.89087 6.6864
183 1 -1.1104 6.59252 2.66715 9.48912
178 1 -1.1104 6.7943 -2.8872 12.2416
179 1 -1.1104 6.58351 2.79574 12.3495
189 1 -1.1104 6.64517 -0.210454 9.41928
182 1 -1.1104 6.5981 -3.03162 9.47059
171 1 -1.1104 6.54365 -0.251719 6.7511
81 1 -1.1104 12.2476 16.6862 12.4583
26 2 2.2208 10.8439 18.0961 10.9257
50 1 -1.1104 12.2009 13.8298 9.52694
8756 2 2.2208 13.5634 12.4628 13.6902
8443 2 2.2208 13.6167 1.31021 8.03526
210 1 -1.1104 9.24838 -0.070509 6.69313
209 1 -1.1104 9.31162 2.70096 6.7266
207 1 -1.1104 12.0973 -0.143316 6.50889
206 1 -1.1104 12.0607 2.73027 6.72281
211 2 2.2208 10.8818 1.29798 10.8772
212 1 -1.1104 12.2885 -2.88447 12.2129
213 1 -1.1104 12.1416 2.77819 12.2649
214 1 -1.1104 12.2585 -2.81587 9.44316
215 1 -1.1104 12.2297 2.73025 9.4573
216 1 -1.1104 12.162 -0.0837476 12.2864
217 2 2.2208 10.7427 -1.51007 7.99143
218 2 2.2208 10.7037 4.06005 7.92707
219 1 -1.1104 12.1891 0.0118696 9.55807
220 1 -1.1104 9.41483 -2.94776 12.3968
221 1 -1.1104 9.33504 2.81758 12.2111
222 2 2.2208 7.8905 1.3196 8.15754
223 1 -1.1104 9.44308 -2.94105 9.62228
224 1 -1.1104 9.2392 2.76041 9.41547
225 2 2.2208 8.03925 -1.51078 10.8597
227 1 -1.1104 9.36353 -0.172234 12.2943
228 1 -1.1104 9.50354 -0.135433 9.38787
226 2 2.2208 8.0615 4.1906 10.8417
317 2 2.2208 7.99839 1.33719 13.5701
52 1 -1.1104 9.50206 16.7574 12.3651
156 1 -1.1104 9.31641 19.4891 6.58441
78 1 -1.1104 3.68427 11.2038 6.70292
234 1 -1.1104 0.93573 8.17569 6.75558
65 1 -1.1104 6.53484 11.1854 6.66774
236 1 -1.1104 0.946577 5.50417 6.70082
238 1 -1.1104 3.77772 8.28999 6.63143
240 2 2.2208 5.09799 6.85537 10.9202
241 2 2.2208 5.0318 12.3662 10.8857
242 1 -1.1104 0.838558 8.25986 12.4134
244 1 -1.1104 0.845967 8.38434 9.52814
246 1 -1.1104 1.07606 5.36456 12.1085
247 1 -1.1104 0.917927 11.1611 12.2858
250 2 2.2208 4.90894 9.71898 8.16361
251 1 -1.1104 0.874502 5.44395 9.41441
252 1 -1.1104 0.820228 11.104 9.6567
255 1 -1.1104 3.61627 8.25191 12.3659
256 2 2.2208 2.35646 6.90498 7.94526
257 2 2.2208 2.30633 12.6555 8.06536
258 1 -1.1104 3.52083 8.27188 9.5117
259 2 2.2208 2.16704 9.69726 10.9461
260 1 -1.1104 3.73897 5.48644 12.3208
261 1 -1.1104 3.76121 11.0513 12.3652
262 1 -1.1104 3.71999 5.55164 9.34194
263 1 -1.1104 3.68453 11.2004 9.52185
248 1 -1.1104 6.48259 5.39289 12.2705
243 1 -1.1104 6.49501 8.20648 12.3491
254 1 -1.1104 6.38018 11.1542 9.43767
235 1 -1.1104 6.42694 8.23178 6.70232
249 1 -1.1104 6.49261 10.9059 12.2393
245 1 -1.1104 6.38949 8.34861 9.61532
8657 2 2.2208 13.4237 9.79267 10.8211
8652 2 2.2208 13.5667 6.82977 7.99345
8653 2 2.2208 13.5754 12.5826 8.04121
101 1 -1.1104 9.31198 11.0703 6.73253
267 1 -1.1104 9.28848 8.36469 6.69354
253 1 -1.1104 6.47153 5.51422 9.50057
266 1 -1.1104 12.2983 5.45071 6.51085
264 1 -1.1104 9.29154 11.115 9.47175
268 1 -1.1104 9.25354 5.45941 9.38162
270 1 -1.1104 9.30237 11.0951 12.3365
271 1 -1.1104 9.48361 5.47971 12.1956
272 2 2.2208 7.74308 9.71903 10.859
273 1 -1.1104 9.26178 8.2541 9.50539
274 2 2.2208 7.76053 12.5166 8.03274
275 2 2.2208 7.92672 6.85753 8.14605
276 2 2.2208 10.7552 7.04005 10.8131
277 2 2.2208 10.5884 12.4704 10.8883
278 1 -1.1104 12.2294 8.34922 12.3411
279 1 -1.1104 12.1053 8.24468 9.38604
280 1 -1.1104 12.0393 5.46197 12.1806
281 1 -1.1104 12.0888 11.0354 12.2045
282 2 2.2208 10.8229 9.6562 8.0071
283 1 -1.1104 11.9387 5.52529 9.33365
284 1 -1.1104 12.0283 11.0318 9.48417
285 1 -1.1104 9.26253 8.39153 12.2738
202 1 -1.1104 9.37174 16.7654 9.53205
165 1 -1.1104 9.42486 13.9258 12.217
145 1 -1.1104 12.1151 19.5431 6.67493
133 1 -1.1104 3.7184 16.6472 6.68823
126 1 -1.1104 3.71159 19.3214 6.81732
118 1 -1.1104 6.66583 16.7379 6.5416
108 1 -1.1104 0.911921 14.0939 6.79171
302 1 -1.1104 1.01187 19.5291 6.67164
117 1 -1.1104 0.776479 16.7398 6.8559
124 1 -1.1104 3.58074 13.8834 6.50077
288 1 -1.1104 6.60814 19.462 9.6284
289 1 -1.1104 6.54244 16.6809 9.46727
306 1 -1.1104 6.5691 16.5372 12.2424
232 2 2.2208 2.35273 15.3184 10.8825
286 1 -1.1104 3.86547 19.4858 12.2801
287 1 -1.1104 3.81557 13.7813 12.3205
291 1 -1.1104 0.944858 19.4846 9.50945
292 1 -1.1104 0.849574 16.7229 9.53417
293 2 2.2208 5.16412 20.9162 7.98279
294 1 -1.1104 0.985791 14.0267 9.48315
295 2 2.2208 5.12998 15.2949 8.04913
298 1 -1.1104 0.947846 19.3975 12.4175
299 1 -1.1104 0.977364 13.9466 12.3805
300 2 2.2208 5.21917 18.1212 10.923
301 1 -1.1104 3.84131 19.4091 9.55754
303 2 2.2208 2.30939 18.0335 8.12742
304 1 -1.1104 3.68569 16.6287 9.46593
305 1 -1.1104 3.73064 13.7602 9.40771
307 1 -1.1104 1.04289 16.5855 12.2322
308 1 -1.1104 3.87745 16.7159 12.2935
309 2 2.2208 2.38788 20.9809 10.8722
296 1 -1.1104 6.55766 19.4995 12.3191
297 1 -1.1104 6.6539 13.736 12.1216
82 2 2.2208 10.8336 15.1689 8.11112
27 1 -1.1104 12.2532 13.8392 12.3747
104 2 2.2208 10.8017 21.0449 8.08
8754 2 2.2208 13.5759 6.83727 13.6278
8703 2 2.2208 13.5928 20.9869 10.8624
49 1 -1.1104 12.1544 19.4267 12.3137
163 1 -1.1104 9.45834 16.6372 6.74942
230 1 -1.1104 9.27754 13.9252 9.38697
314 2 2.2208 2.32646 1.32095 13.6204
319 2 2.2208 10.7335 4.11208 13.6014
8053 2 2.2208 5.08824 -4.36394 -0.281578
321 2 2.2208 5.02847 9.63884 13.6143
313 2 2.2208 5.23981 -1.43048 13.5427
375 2 2.2208 7.98465 15.2639 -0.276436
332 2 2.2208 5.06321 1.19906 -0.19984
331 2 2.2208 8.05699 18.1074 13.5997
8988 2 2.2208 13.5451 4.06448 -0.321238
632 2 2.2208 5.25674 12.5036 -0.228773
328 2 2.2208 5.11749 15.2452 13.6424
333 2 2.2208 2.33769 -1.52271 -0.252481
655 2 2.2208 10.8429 6.8923 -0.250008
337 2 2.2208 7.92976 -1.58001 -0.316548
597 2 2.2208 7.92142 4.1342 -0.203831
338 2 2.2208 5.06679 1.34583 16.4322
339 1 -1.1104 0.920855 -2.9008 17.9678
340 1 -1.1104 0.948795 2.60787 17.8852
343 1 -1.1104 0.922895 -2.90268 15.088
345 1 -1.1104 0.960479 2.71775 15.118
351 1 -1.1104 0.986137 -0.115522 17.8457
353 2 2.2208 5.028 -1.57723 19.2062
354 2 2.2208 5.13613 4.02727 19.1895
355 1 -1.1104 0.872713 0.00424284 15.0922
359 1 -1.1104 3.75803 -2.92962 17.8051
360 1 -1.1104 3.6252 2.55954 17.8139
361 2 2.2208 2.31327 1.19171 19.2516
362 1 -1.1104 3.80205 -2.9807 15.1083
364 1 -1.1104 3.70858 2.74583 14.9887
366 2 2.2208 2.38838 -1.46182 16.3069
367 2 2.2208 2.28734 4.08258 16.4768
368 1 -1.1104 3.63628 -0.104704 17.9033
369 1 -1.1104 3.70612 -0.151222 15.0011
347 1 -1.1104 6.60135 -2.78243 15.1219
357 1 -1.1104 6.53252 -0.0231625 14.9339
8101 2 2.2208 2.32067 -4.33898 24.945
17450 2 2.2208 13.5772 -4.33726 24.9122
17421 2 2.2208 13.6125 -4.35645 19.2882
352 1 -1.1104 6.55865 -0.159768 17.7085
342 1 -1.1104 6.60968 2.74477 17.9301
634 2 2.2208 -0.34748 9.70881 25.0641
8099 2 2.2208 8.06629 -4.32048 24.9203
8838 2 2.2208 13.5152 12.4901 24.8283
356 1 -1.1104 0.907513 -0.214665 20.6535
346 1 -1.1104 0.85353 2.53873 20.789
363 1 -1.1104 3.70011 -2.99743 20.7458
572 1 -1.1104 9.21947 16.6542 26.177
341 1 -1.1104 6.65014 -3.02535 17.8303
8804 2 2.2208 13.4578 1.2563 19.2412
537 1 -1.1104 6.51665 19.5425 23.4458
349 1 -1.1104 6.52156 2.70595 14.9541
381 2 2.2208 10.6519 1.33234 16.4329
382 1 -1.1104 12.3212 -2.88605 17.8496
383 1 -1.1104 12.2305 2.90995 17.9111
384 1 -1.1104 12.3626 -2.95888 14.9157
386 1 -1.1104 12.093 2.70864 15.1519
388 1 -1.1104 12.1318 -0.0514918 17.8906
389 2 2.2208 10.6485 -1.54212 19.2888
390 2 2.2208 10.7828 4.09463 19.302
391 1 -1.1104 12.0774 0.0327424 15.0199
393 1 -1.1104 9.48237 -2.86346 17.8189
394 1 -1.1104 9.42838 2.72523 17.9537
395 2 2.2208 7.95134 1.4038 19.2429
396 1 -1.1104 9.45568 -2.78364 15.1155
398 1 -1.1104 9.21344 2.74179 15.0395
400 2 2.2208 7.98377 -1.45883 16.3747
401 2 2.2208 7.97187 4.17403 16.5418
402 1 -1.1104 9.25464 0.0216189 17.8524
403 1 -1.1104 9.41942 -0.0252945 15.0099
404 1 -1.1104 9.24951 -0.196936 20.7541
489 1 -1.1104 6.47447 19.5617 20.7886
385 1 -1.1104 12.0723 -3.10436 20.6975
8798 2 2.2208 13.5774 4.07768 16.4564
8103 2 2.2208 7.83843 -4.30993 19.3277
8844 2 2.2208 13.583 15.3824 21.9057
8799 2 2.2208 13.6157 -1.49114 16.4131
320 2 2.2208 2.32574 6.86358 13.7264
322 2 2.2208 2.19193 12.5723 13.7786
414 2 2.2208 5.11124 6.83916 16.4782
415 2 2.2208 5.19981 12.5624 16.4208
416 1 -1.1104 0.933703 8.41277 17.8329
418 1 -1.1104 1.01359 8.36733 15.0141
422 1 -1.1104 0.729979 5.47729 17.922
423 1 -1.1104 1.00088 11.0595 17.9637
426 2 2.2208 5.31716 9.80204 19.1874
427 1 -1.1104 0.823659 5.53574 15.0517
429 1 -1.1104 0.746079 11.2766 15.083
435 1 -1.1104 3.78774 8.28211 18.0289
436 2 2.2208 2.27452 6.89624 19.208
437 2 2.2208 2.40247 12.5455 19.3199
438 1 -1.1104 3.74394 8.30679 15.1369
440 2 2.2208 2.34834 9.71317 16.5393
441 1 -1.1104 3.68494 5.44613 17.8917
442 1 -1.1104 3.90695 11.1011 17.8533
443 1 -1.1104 3.75286 5.49102 15.2635
445 1 -1.1104 3.72826 10.9669 15.2145
431 1 -1.1104 6.57318 5.44458 15.0635
433 1 -1.1104 6.47592 11.1581 14.9394
417 1 -1.1104 6.64312 8.262 17.7592
420 1 -1.1104 6.39429 8.17864 15.1699
425 1 -1.1104 6.52694 10.9746 17.6861
8100 2 2.2208 10.6835 -4.31358 22.0805
424 1 -1.1104 6.59315 5.54165 17.7422
430 1 -1.1104 1.0411 11.1422 20.9288
428 1 -1.1104 0.93463 5.40872 20.7172
8872 2 2.2208 13.5003 9.76698 16.5446
8944 2 2.2208 13.5232 18.1396 19.3474
450 2 2.2208 10.7852 6.86861 16.3852
451 2 2.2208 10.7307 12.5277 16.4751
452 1 -1.1104 12.2192 8.40063 17.9171
453 1 -1.1104 12.238 8.37437 15.1761
455 1 -1.1104 12.3074 5.60542 17.8651
456 1 -1.1104 12.0655 11.1927 17.8498
457 2 2.2208 10.7961 9.54403 19.3067
458 1 -1.1104 11.9729 5.49091 15.0769
460 1 -1.1104 12.1252 11.1376 15.04
462 1 -1.1104 9.40837 8.24005 17.8626
463 2 2.2208 8.01342 6.81339 19.221
464 2 2.2208 7.97125 12.6141 19.1653
465 1 -1.1104 9.4042 8.25087 15.0088
467 2 2.2208 7.88146 9.64012 16.3778
468 1 -1.1104 9.49058 5.47196 17.8486
469 1 -1.1104 9.37017 11.1312 17.9842
470 1 -1.1104 9.2175 5.40994 15.0937
472 1 -1.1104 9.21816 11.075 15.1547
8802 2 2.2208 13.6306 20.9068 27.7039
571 1 -1.1104 6.61107 14.0304 26.3379
8874 2 2.2208 13.4893 12.3896 19.1493
466 1 -1.1104 9.34844 8.19096 20.6874
471 1 -1.1104 9.49886 5.42722 20.6598
8945 2 2.2208 13.5472 20.9216 16.453
477 2 2.2208 5.1198 18.1251 16.5275
478 1 -1.1104 0.8783 13.854 17.9492
479 1 -1.1104 0.86948 19.4698 17.9229
482 1 -1.1104 0.89351 13.9611 15.2814
484 1 -1.1104 0.976166 19.4128 15.2045
490 1 -1.1104 0.97839 16.7807 17.8849
492 2 2.2208 5.30598 15.2983 19.3816
493 2 2.2208 5.14328 20.8693 19.325
494 1 -1.1104 0.940172 16.6949 15.0484
498 1 -1.1104 3.84063 13.7756 17.7585
499 1 -1.1104 3.83655 19.517 17.9674
500 2 2.2208 2.45957 18.0177 19.1918
501 1 -1.1104 3.64586 13.8503 14.9533
503 1 -1.1104 3.70775 19.503 15.1693
505 2 2.2208 2.41492 15.2964 16.4585
506 2 2.2208 2.47577 20.8278 16.5679
507 1 -1.1104 3.87998 16.6162 17.9169
508 1 -1.1104 3.68419 16.6534 15.1617
488 1 -1.1104 6.53353 19.5227 15.0991
481 1 -1.1104 6.5873 19.3997 17.7694
483 1 -1.1104 0.919145 13.9122 20.8047
509 1 -1.1104 3.83248 16.8432 20.658
496 1 -1.1104 6.54071 16.7987 15.0624
491 1 -1.1104 6.63759 16.7363 17.9119
8873 2 2.2208 13.6336 6.90604 19.1987
502 1 -1.1104 3.6924 14.0864 20.4517
8050 2 2.2208 10.9446 -4.37257 27.6915
8989 2 2.2208 13.5853 1.23459 24.745
658 1 -1.1104 9.38171 19.4588 26.283
517 1 -1.1104 12.1765 13.8264 20.6337
8770 2 2.2208 13.5357 -1.4021 27.6804
497 1 -1.1104 6.63631 16.7608 20.7192
486 1 -1.1104 6.45874 13.9397 15.0997
480 1 -1.1104 6.4852 13.9524 17.8775
513 2 2.2208 10.7335 18.0121 16.5492
514 1 -1.1104 12.1765 13.883 17.8375
515 1 -1.1104 12.2127 19.5918 17.9412
516 1 -1.1104 12.152 13.872 15.1545
518 1 -1.1104 12.1764 19.4171 15.1716
520 1 -1.1104 12.1475 16.7193 17.9748
521 2 2.2208 10.7601 15.306 19.2301
522 2 2.2208 10.7908 21.0179 19.3386
523 1 -1.1104 12.0753 16.624 15.1636
525 1 -1.1104 9.25237 13.9822 17.802
526 1 -1.1104 9.35329 19.4918 17.7777
527 2 2.2208 8.11853 17.9901 19.2902
528 1 -1.1104 9.26857 13.8526 15.0622
530 1 -1.1104 9.49224 19.3544 15.0698
532 2 2.2208 7.87616 15.4304 16.4443
533 2 2.2208 7.92714 20.7237 16.5001
534 1 -1.1104 9.37735 16.6712 17.866
535 1 -1.1104 9.26998 16.6414 14.9739
536 1 -1.1104 9.2859 16.5664 20.7385
529 1 -1.1104 9.40305 13.907 20.6396
524 1 -1.1104 12.1357 16.7264 20.8599
519 1 -1.1104 12.1532 19.6239 20.7773
531 1 -1.1104 9.3035 19.4706 20.6115
604 1 -1.1104 9.36399 19.6704 23.5764
350 1 -1.1104 6.51164 2.80048 20.7387
370 1 -1.1104 3.62512 -0.278995 20.6489
8942 2 2.2208 13.5589 15.3372 16.4374
365 1 -1.1104 3.69727 2.64079 20.4723
344 1 -1.1104 0.963031 -3.03829 20.8255
541 2 2.2208 5.09383 1.15461 21.9836
542 1 -1.1104 0.984058 -2.91221 23.5934
543 1 -1.1104 0.796241 2.53276 23.609
546 1 -1.1104 0.77735 -2.82332 26.3932
547 1 -1.1104 0.937468 2.74921 26.1731
550 1 -1.1104 0.818934 -0.217326 23.4066
552 2 2.2208 5.15862 -1.54209 24.966
553 2 2.2208 5.29896 4.07764 24.9564
554 1 -1.1104 1.00361 -0.0839278 26.3697
556 1 -1.1104 3.79369 -2.88971 23.6577
557 1 -1.1104 3.65599 2.54928 23.4635
558 2 2.2208 2.24639 1.11665 24.912
559 1 -1.1104 3.706 -3.01112 26.3863
560 1 -1.1104 3.73995 2.71183 26.187
561 2 2.2208 2.28492 -1.58 22.2174
562 2 2.2208 2.48595 4.00945 22.1593
563 1 -1.1104 3.81296 -0.106515 23.5143
564 1 -1.1104 3.70567 -0.203037 26.3654
348 1 -1.1104 6.39742 -2.87902 20.6217
551 1 -1.1104 6.59737 -0.138543 23.5774
555 1 -1.1104 6.49516 -0.145621 26.4709
8843 2 2.2208 13.5965 18.1269 24.9008
574 1 -1.1104 12.1816 19.4891 26.214
9005 2 2.2208 13.4737 4.10339 22.0388
540 1 -1.1104 12.1159 14.0086 23.3583
605 2 2.2208 7.87777 18.1417 24.9103
549 1 -1.1104 6.56295 2.6919 26.5025
544 1 -1.1104 6.58267 -2.89142 23.5211
545 1 -1.1104 6.50869 2.74294 23.5658
387 1 -1.1104 11.8566 2.4774 20.6478
397 1 -1.1104 9.37025 -3.05523 20.6848
358 1 -1.1104 6.52148 0.0311985 20.6027
548 1 -1.1104 6.65152 -2.97457 26.2568
392 1 -1.1104 12.0171 -0.325387 20.7752
399 1 -1.1104 9.2301 2.72972 20.6929
577 2 2.2208 10.6482 1.22551 22.1026
578 1 -1.1104 12.0217 -2.99711 23.6101
579 1 -1.1104 12.2553 2.65815 23.5138
580 1 -1.1104 12.2084 -2.8032 26.3489
581 1 -1.1104 12.0338 2.80262 26.3817
582 1 -1.1104 12.2172 -0.188546 23.4452
583 2 2.2208 10.6964 -1.55447 24.9549
584 2 2.2208 10.6685 4.03993 24.9273
585 1 -1.1104 12.1147 -0.00437467 26.1787
586 1 -1.1104 9.39265 -2.87411 23.4104
587 1 -1.1104 9.38604 2.55907 23.5199
588 2 2.2208 7.79565 1.31275 25.0291
589 1 -1.1104 9.51322 -2.88081 26.4079
590 1 -1.1104 9.22505 2.56875 26.368
591 2 2.2208 7.91534 -1.57768 22.0566
592 2 2.2208 7.94653 4.12521 22.0872
593 1 -1.1104 9.38998 -0.132716 23.4942
594 1 -1.1104 9.17247 -0.143768 26.2228
326 2 2.2208 2.3587 18.0216 13.7412
8990 2 2.2208 13.4005 -1.73312 22.0886
446 1 -1.1104 3.87937 10.9978 20.7195
439 1 -1.1104 3.79347 8.38303 20.7224
419 1 -1.1104 1.01 8.27987 20.6667
444 1 -1.1104 3.7486 5.5173 20.6264
606 2 2.2208 5.1711 6.96301 22.0795
607 2 2.2208 5.14563 12.4584 22.1129
608 1 -1.1104 0.961913 8.24739 23.4312
610 1 -1.1104 1.11261 8.28297 26.3603
612 1 -1.1104 1.09697 5.41599 23.4817
613 1 -1.1104 1.10578 11.0127 23.6288
616 2 2.2208 5.09619 9.64841 24.8369
617 1 -1.1104 0.949494 5.64971 26.2474
618 1 -1.1104 0.955398 11.1028 26.4906
621 1 -1.1104 3.8456 8.25945 23.4732
622 2 2.2208 2.40123 6.97454 24.8352
623 2 2.2208 2.42045 12.5421 24.9567
624 1 -1.1104 3.75413 8.21628 26.3075
625 2 2.2208 2.35965 9.72805 22.0888
626 1 -1.1104 3.9834 5.43832 23.4209
627 1 -1.1104 3.77876 11.1147 23.5048
628 1 -1.1104 3.79692 5.47032 26.203
629 1 -1.1104 3.75067 11.0583 26.254
432 1 -1.1104 6.68673 5.54161 20.6965
421 1 -1.1104 6.55712 8.27412 20.4961
614 1 -1.1104 6.75951 5.535 23.5982
615 1 -1.1104 6.49257 11.1193 23.3233
620 1 -1.1104 6.5505 11.2203 26.4585
619 1 -1.1104 6.56025 5.52821 26.3458
636 1 -1.1104 9.38434 13.9966 26.3854
8797 2 2.2208 13.6465 6.82774 24.8085
434 1 -1.1104 6.65327 11.0795 20.6184
473 1 -1.1104 9.40415 11.0223 20.7144
461 1 -1.1104 12.1593 11.0934 20.5641
459 1 -1.1104 12.2927 5.60148 20.6232
611 1 -1.1104 6.56243 8.20108 26.238
609 1 -1.1104 6.54645 8.33215 23.4777
454 1 -1.1104 12.1189 8.32371 20.6812
637 1 -1.1104 9.25902 11.1241 26.1663
638 1 -1.1104 9.37074 5.42349 26.3189
639 1 -1.1104 9.36587 11.1081 23.3989
640 1 -1.1104 9.42035 5.32537 23.5091
641 2 2.2208 7.91404 9.74023 21.9711
642 1 -1.1104 9.38854 8.32989 26.5444
643 2 2.2208 8.01388 12.4996 24.8087
644 2 2.2208 8.06516 6.90221 24.9916
645 2 2.2208 10.8199 6.79622 22.068
646 2 2.2208 10.7518 12.5058 22.0197
647 1 -1.1104 12.0245 8.32347 23.4178
648 1 -1.1104 12.0546 8.14692 26.182
649 1 -1.1104 12.229 5.52971 23.4634
650 1 -1.1104 12.1089 11.1065 23.3244
651 2 2.2208 10.6223 9.70856 24.8269
652 1 -1.1104 12.1536 5.45336 26.3242
653 1 -1.1104 12.1086 10.9656 26.1937
654 1 -1.1104 9.28168 8.28962 23.6329
9064 2 2.2208 13.5689 9.77465 22.0939
598 2 2.2208 10.7649 20.8435 24.9283
504 1 -1.1104 3.68042 19.5652 20.7782
487 1 -1.1104 6.62406 13.9648 20.675
495 1 -1.1104 1.08529 16.7827 20.6065
510 1 -1.1104 6.61276 13.7726 23.5256
633 1 -1.1104 6.56341 19.6303 26.2891
485 1 -1.1104 0.885295 19.4597 20.7096
567 1 -1.1104 3.71427 13.9147 23.3164
565 1 -1.1104 0.897795 19.5252 26.39
539 1 -1.1104 0.910109 16.6588 26.3702
538 1 -1.1104 1.00701 13.8984 26.3337
595 1 -1.1104 3.73959 19.5715 23.5775
512 2 2.2208 5.13591 21.0002 25.0084
379 2 2.2208 2.4313 15.4343 22.0228
380 2 2.2208 2.31501 20.9134 22.0965
407 1 -1.1104 3.70277 16.7012 23.3631
411 1 -1.1104 0.9687 16.6583 23.5276
413 1 -1.1104 3.91172 13.9301 26.0706
447 1 -1.1104 3.83354 16.6635 26.2595
448 2 2.2208 2.25057 18.1188 25.0101
449 1 -1.1104 3.70837 19.4884 26.4512
474 2 2.2208 5.17996 18.1301 22.1966
475 1 -1.1104 0.847249 13.718 23.5747
476 1 -1.1104 0.929136 19.4322 23.6966
511 2 2.2208 5.22687 15.1964 24.7946
412 1 -1.1104 6.52291 16.6772 23.5851
573 1 -1.1104 12.2054 13.9235 26.3382
569 1 -1.1104 12.308 19.4515 23.5416
602 1 -1.1104 12.0667 16.6435 26.3168
596 2 2.2208 7.99181 20.8828 22.1025
576 2 2.2208 10.6964 15.4371 24.9314
603 1 -1.1104 9.35192 14.0347 23.5176
566 1 -1.1104 6.63 16.6681 26.4618
575 1 -1.1104 12.1025 16.7292 23.4656
410 2 2.2208 10.7631 18.1579 22.2732
659 2 2.2208 7.93122 15.3485 22.2081
600 1 -1.1104 9.29281 16.846 23.5105
378 2 2.2208 2.35681 20.8528 27.6682
8803 2 2.2208 13.4941 9.62204 27.502
8055 2 2.2208 8.05221 -4.27456 13.7172
334 2 2.2208 2.1593 4.12118 27.6255
336 2 2.2208 10.7522 1.26175 27.519
330 2 2.2208 10.7009 15.2318 13.743
630 2 2.2208 5.13978 6.87953 27.5722
8058 2 2.2208 2.34344 -4.30545 13.822
405 2 2.2208 10.7119 18.0504 27.6083
372 2 2.2208 2.4154 15.2549 27.7128
327 2 2.2208 5.19045 20.9561 13.7807
315 2 2.2208 5.12322 4.17453 13.7037
329 2 2.2208 10.9343 20.9026 13.721
409 2 2.2208 7.99488 20.8206 27.6884
323 2 2.2208 7.90859 6.91733 13.7315
8745 2 2.2208 13.5764 18.0139 13.754
660 2 2.2208 5.07337 23.747 5.16693
661 2 2.2208 5.14295 29.3189 5.18946
662 1 -1.1104 1.00503 25.1246 1.12411
663 1 -1.1104 0.978276 25.0957 3.83928
664 1 -1.1104 0.913692 22.3194 1.02995
665 1 -1.1104 0.911692 27.9117 1.02624
666 2 2.2208 5.05212 26.5597 2.3796
667 1 -1.1104 1.08041 22.2718 3.77796
668 1 -1.1104 0.982539 27.9705 3.82695
669 1 -1.1104 3.7033 25.2926 0.872245
670 2 2.2208 2.42555 23.7096 2.4121
671 2 2.2208 2.25099 29.3555 2.38035
672 1 -1.1104 3.81472 25.0716 3.76994
673 2 2.2208 2.32157 26.515 5.16328
674 1 -1.1104 3.75734 22.3336 1.07888
675 1 -1.1104 3.7994 28.0656 1.0696
676 1 -1.1104 3.72358 22.2564 3.9034
677 1 -1.1104 3.76143 27.8471 3.79555
683 1 -1.1104 6.51853 22.1603 1.01742
686 1 -1.1104 6.59351 27.9181 3.83111
681 1 -1.1104 6.56586 24.9218 1.02567
801 1 -1.1104 0.97752 25.1064 6.64258
809 1 -1.1104 3.82333 27.8306 6.51355
685 1 -1.1104 6.64906 22.3094 3.80813
682 1 -1.1104 6.52657 25.1815 3.8848
9427 2 2.2208 13.6475 34.9157 2.433
9327 2 2.2208 13.626 37.9492 10.8042
1271 2 2.2208 2.28708 32.129 -0.380643
9423 2 2.2208 13.6442 29.3973 2.43176
684 1 -1.1104 6.562 27.8109 0.97722
687 2 2.2208 10.739 23.8352 5.31921
688 2 2.2208 10.8048 29.3397 5.29536
689 1 -1.1104 12.065 25.0554 1.28248
690 1 -1.1104 12.1214 25.0729 4.09423
691 1 -1.1104 12.1259 22.3687 1.06233
692 1 -1.1104 12.1317 27.9373 1.10753
693 2 2.2208 10.6359 26.5536 2.48517
694 1 -1.1104 12.2156 22.1956 4.0516
695 1 -1.1104 12.1448 27.9502 3.98342
696 1 -1.1104 9.31978 25.108 1.04199
697 2 2.2208 8.01806 23.8717 2.51982
698 2 2.2208 7.89952 29.4205 2.39595
699 1 -1.1104 9.33996 25.1629 3.85853
700 2 2.2208 7.79005 26.572 5.34994
701 1 -1.1104 9.36842 22.3332 1.26284
702 1 -1.1104 9.39263 27.7974 1.09045
703 1 -1.1104 9.55671 22.413 3.98861
704 1 -1.1104 9.32442 27.918 4.02208
837 1 -1.1104 9.35322 25.2088 6.6923
997 2 2.2208 2.4086 37.7947 -0.291326
9433 2 2.2208 -0.206034 46.2346 11.0488
9332 2 2.2208 13.5929 32.2194 10.825
967 2 2.2208 -0.239928 31.9671 8.17089
1242 2 2.2208 7.91562 26.5011 -0.330384
708 2 2.2208 5.1857 34.9761 5.25048
709 1 -1.1104 0.907853 30.7313 1.05226
710 1 -1.1104 1.10365 36.4179 1.01899
712 1 -1.1104 0.817 30.7869 3.84338
713 1 -1.1104 1.03042 36.3203 3.91096
715 1 -1.1104 1.05157 33.5426 1.17537
716 2 2.2208 5.14649 32.0936 2.39952
717 2 2.2208 5.25643 37.6602 2.45625
718 1 -1.1104 1.06061 33.4476 3.98106
720 1 -1.1104 3.78081 30.8129 1.08219
721 1 -1.1104 3.7629 36.3929 1.06323
722 2 2.2208 2.44675 35.0072 2.55444
723 1 -1.1104 3.84876 30.7648 3.9117
724 1 -1.1104 3.9333 36.3052 3.89223
725 2 2.2208 2.44076 32.0909 5.25141
726 2 2.2208 2.37866 37.6916 5.32112
727 1 -1.1104 3.82149 33.509 1.07627
728 1 -1.1104 3.81232 33.4708 3.81597
714 1 -1.1104 6.70427 36.4068 3.90939
732 1 -1.1104 6.61824 30.642 0.998118
734 1 -1.1104 6.70463 33.5964 1.07732
719 1 -1.1104 6.64979 33.581 3.89802
767 1 -1.1104 6.78732 39.1164 3.94059
866 1 -1.1104 3.85849 33.5308 6.54793
859 1 -1.1104 1.00199 36.2458 6.76654
865 1 -1.1104 3.72446 36.2594 6.74817
1247 2 2.2208 10.7679 29.3447 -0.357142
9323 2 2.2208 13.6382 34.9524 8.0941
733 1 -1.1104 6.63588 30.7756 3.86645
711 1 -1.1104 6.66726 36.3964 0.987037
744 1 -1.1104 9.50619 30.7469 1.02315
735 2 2.2208 11.0044 34.9938 5.3045
736 1 -1.1104 12.2965 30.6778 0.972188
737 1 -1.1104 12.3574 36.3698 1.0981
738 1 -1.1104 12.2808 30.744 3.9225
739 1 -1.1104 12.2136 36.2592 3.93835
740 1 -1.1104 12.2478 33.7136 1.21279
741 2 2.2208 10.821 32.0814 2.57247
742 2 2.2208 10.8708 37.7025 2.48412
743 1 -1.1104 12.2218 33.507 3.89191
745 1 -1.1104 9.56466 36.2905 1.02995
746 2 2.2208 8.09286 35.0473 2.56101
747 1 -1.1104 9.48891 30.6806 3.86576
748 1 -1.1104 9.42662 36.3326 3.87352