ITEM: TIMESTEP
90000
ITEM: NUMBER OF ATOMS
17730
ITEM: BOX BOUNDS pp pp pp
-3.6418283921829098e-01 2.7704182839218294e+01
-4.3943008363673703e+00 3.3247430083636766e+02
-3.6312533594862062e-01 2.7703125335948428e+01
ITEM: ATOMS id type q x y z
1 2 2.2208 5.16655 1.31684 5.19994
2 1 -1.1104 0.997871 -2.98025 1.0417
3 1 -1.1104 1.0704 2.69134 1.15323
6 1 -1.1104 0.973616 -2.73135 3.80729
7 1 -1.1104 1.06607 2.72234 3.94143
10 1 -1.1104 1.00596 -0.0240129 1.21174
12 2 2.2208 5.27234 -1.55712 2.46731
14 1 -1.1104 1.22484 0.199066 4.11943
16 1 -1.1104 3.7331 -2.79438 1.10415
17 1 -1.1104 3.81007 2.7604 1.11657
18 2 2.2208 2.44479 1.34624 2.5162
19 1 -1.1104 3.84284 -2.91746 3.90653
20 1 -1.1104 3.85886 2.78879 3.94346
21 2 2.2208 2.52679 -1.46601 5.37586
23 1 -1.1104 3.81268 -0.0675557 0.940093
24 1 -1.1104 3.97575 -0.0593311 3.85822
13 2 2.2208 5.23583 4.27104 2.50381
22 2 2.2208 2.40948 4.18425 5.36808
172 1 -1.1104 3.88658 -2.74138 6.78599
174 1 -1.1104 3.86253 0.0257696 6.7765
170 1 -1.1104 0.935111 -0.259751 6.68657
173 1 -1.1104 3.7406 2.77346 6.73669
171 1 -1.1104 6.6896 -0.148499 6.64399
15 1 -1.1104 6.67977 -0.0568741 3.72051
631 2 2.2208 2.36828 9.74718 -0.374495
167 1 -1.1104 0.855403 2.71724 6.67387
330 2 2.2208 10.7919 15.248 13.7433
11 1 -1.1104 6.57849 -0.0918279 0.986514
169 1 -1.1104 6.60179 2.65726 6.6865
8743 2 2.2208 13.7201 -1.53946 5.28453
8038 2 2.2208 5.25399 -4.2687 5.3726
656 2 2.2208 8.09478 9.80482 -0.441023
9 1 -1.1104 6.61566 2.77888 3.91766
8 1 -1.1104 6.62805 -2.98683 3.85553
5 1 -1.1104 6.61824 2.5927 1.09125
4 1 -1.1104 6.46357 -3.00105 1.05725
168 1 -1.1104 6.71117 -2.76127 6.66386
31 2 2.2208 10.7636 1.2221 5.22829
32 1 -1.1104 12.1115 -3.02336 1.00404
33 1 -1.1104 12.1067 2.63637 1.12747
34 1 -1.1104 12.1991 -3.06021 3.8781
35 1 -1.1104 12.1156 2.6914 3.92525
36 1 -1.1104 12.1727 -0.222099 1.00182
37 2 2.2208 10.7069 -1.53641 2.36642
38 2 2.2208 10.8158 4.06404 2.48461
39 1 -1.1104 12.2543 -0.301604 3.73676
40 1 -1.1104 9.30235 -2.89258 1.01965
41 1 -1.1104 9.40055 2.82221 1.09742
42 2 2.2208 7.97716 1.34725 2.46619
43 1 -1.1104 9.42385 -2.96283 3.91943
44 1 -1.1104 9.34875 2.682 3.76811
45 2 2.2208 8.11717 -1.50808 5.21802
47 1 -1.1104 9.38942 -0.124336 1.01699
48 1 -1.1104 9.48263 -0.0105888 3.6959
209 1 -1.1104 9.39304 2.8009 6.56412
206 1 -1.1104 12.1775 2.60838 6.87045
210 1 -1.1104 9.40171 -0.132064 6.55064
207 1 -1.1104 12.1816 -0.163801 6.51094
46 2 2.2208 7.97144 4.13676 5.21381
203 2 2.2208 -0.338604 15.3757 8.12254
208 1 -1.1104 9.44364 -2.84838 6.63886
8442 2 2.2208 13.7594 -1.62101 10.8342
17356 2 2.2208 13.5029 -4.42033 2.60434
655 2 2.2208 10.7818 6.98058 -0.258387
378 2 2.2208 2.48201 20.9355 -0.402582
54 2 2.2208 5.10369 6.97278 5.30756
55 2 2.2208 5.28353 12.6939 5.2
56 1 -1.1104 0.982995 8.28652 1.04323
58 1 -1.1104 1.09907 8.32679 3.95225
60 1 -1.1104 0.98775 5.48614 1.18049
61 1 -1.1104 0.957547 11.1036 1.09864
66 2 2.2208 5.23574 9.73768 2.44153
67 1 -1.1104 1.0293 5.60648 3.89788
68 1 -1.1104 1.10351 11.226 3.80992
71 1 -1.1104 3.8448 8.4936 1.13891
72 2 2.2208 2.45645 6.99057 2.41698
73 2 2.2208 2.41025 12.6909 2.38879
74 1 -1.1104 3.70097 8.35466 3.80082
75 2 2.2208 2.40952 9.73739 5.18623
76 1 -1.1104 3.86481 5.71337 1.10833
77 1 -1.1104 3.81045 11.2158 0.912641
79 1 -1.1104 3.85884 5.51597 3.97172
80 1 -1.1104 3.90168 11.2369 3.7916
62 1 -1.1104 0.928296 11.1752 6.56408
70 1 -1.1104 6.75416 11.2639 3.71316
57 1 -1.1104 6.70412 8.25692 1.04092
69 1 -1.1104 6.68774 5.64543 3.93272
239 1 -1.1104 3.7258 5.73419 6.68309
235 1 -1.1104 6.4649 8.26611 6.79343
59 1 -1.1104 6.46008 8.41113 3.9715
237 1 -1.1104 6.59385 5.46965 6.69484
229 2 2.2208 7.96418 18.1422 8.02871
236 1 -1.1104 0.924928 5.54823 6.73731
234 1 -1.1104 0.893604 8.39486 6.71546
64 1 -1.1104 6.62368 11.1296 0.898057
63 1 -1.1104 6.75692 5.44934 1.11214
84 2 2.2208 10.8159 7.00988 5.28759
85 2 2.2208 10.8681 12.4212 5.23854
86 1 -1.1104 12.2347 8.28459 1.2732
87 1 -1.1104 12.1859 8.33364 3.9884
88 1 -1.1104 12.3143 5.31807 1.15151
89 1 -1.1104 12.2127 11.1516 1.19955
91 2 2.2208 10.8287 9.7493 2.51829
92 1 -1.1104 12.3104 5.51294 4.0001
93 1 -1.1104 12.3148 11.1293 3.92563
94 1 -1.1104 9.36754 8.53126 1.04083
95 2 2.2208 8.01993 6.88354 2.52095
96 2 2.2208 8.16989 12.6152 2.36489
97 1 -1.1104 9.44317 8.32707 3.80072
98 2 2.2208 7.9251 9.73209 5.26625
99 1 -1.1104 9.60598 5.70871 1.13701
100 1 -1.1104 9.37337 11.2138 1.08447
102 1 -1.1104 9.54712 5.37286 3.96645
103 1 -1.1104 9.4991 11.0712 3.972
90 1 -1.1104 12.2987 11.2342 6.76121
269 1 -1.1104 9.29741 5.53544 6.71792
265 1 -1.1104 12.1895 8.25432 6.72555
50 1 -1.1104 12.1359 14.0891 9.62984
266 1 -1.1104 12.1956 5.47783 6.84175
8042 2 2.2208 2.47627 -4.38795 8.18361
8043 2 2.2208 5.23501 -4.49728 10.952
106 2 2.2208 5.27149 18.1532 5.0423
107 1 -1.1104 1.06066 14.069 0.92296
109 1 -1.1104 1.04735 19.4578 0.936336
113 1 -1.1104 0.941056 14.0658 3.70935
114 1 -1.1104 1.11323 19.591 3.85724
116 1 -1.1104 1.11785 16.8184 0.874647
119 2 2.2208 5.44161 15.4357 2.32631
120 2 2.2208 5.23587 21.0997 2.43442
121 1 -1.1104 0.985257 16.7187 3.72251
123 1 -1.1104 3.8982 14.0036 1.11827
125 1 -1.1104 3.88856 19.5693 0.979536
127 2 2.2208 2.42711 18.1663 2.2976
128 1 -1.1104 3.82249 13.9522 3.69915
129 1 -1.1104 3.97718 19.6665 3.80999
130 2 2.2208 2.37924 15.3346 5.09504
131 2 2.2208 2.42305 21.0504 5.29084
132 1 -1.1104 3.79165 16.8086 1.01388
134 1 -1.1104 3.96503 16.7022 3.76445
302 1 -1.1104 0.981968 19.564 6.61086
115 1 -1.1104 6.73314 13.9592 3.91538
126 1 -1.1104 3.78643 19.4778 6.56692
133 1 -1.1104 3.8961 16.7442 6.73721
140 1 -1.1104 6.7612 16.7515 0.850764
111 1 -1.1104 6.67632 14.1737 6.83097
139 1 -1.1104 6.66138 19.6592 3.81
105 1 -1.1104 12.2903 16.7851 9.46347
82 2 2.2208 10.8367 15.3464 8.09307
110 1 -1.1104 6.77847 13.8895 1.06205
122 1 -1.1104 6.75285 16.7854 3.52561
138 1 -1.1104 6.7757 19.6323 1.03957
141 2 2.2208 10.7613 18.1869 5.3483
142 1 -1.1104 12.3427 13.8863 1.08913
144 1 -1.1104 12.2499 19.4761 1.2233
146 1 -1.1104 12.2858 13.8143 3.94096
147 1 -1.1104 12.3841 19.5984 3.90014
148 1 -1.1104 12.321 16.6545 1.09825
150 2 2.2208 10.8819 15.4261 2.41152
151 2 2.2208 10.8961 20.8618 2.56252
152 1 -1.1104 12.2993 16.7697 3.92242
153 1 -1.1104 9.4983 13.8791 1.09315
155 1 -1.1104 9.5141 19.5924 1.08526
157 2 2.2208 8.14425 18.1872 2.41728
158 1 -1.1104 9.53777 14.0363 3.96203
159 1 -1.1104 9.46758 19.579 3.85049
160 2 2.2208 8.07443 15.3658 5.25711
161 2 2.2208 7.93028 21.0455 5.31884
162 1 -1.1104 9.44643 16.6851 0.943984
164 1 -1.1104 9.61618 16.8397 3.86101
143 1 -1.1104 12.2695 13.9021 6.81987
145 1 -1.1104 12.2907 19.6114 6.83136
156 1 -1.1104 9.44819 19.6379 6.73699
8041 2 2.2208 10.902 -4.42343 5.28952
49 1 -1.1104 12.1462 19.5296 12.3516
8046 2 2.2208 10.8918 -4.39707 10.8691
166 1 -1.1104 1.12572 -3.04576 6.55529
8740 2 2.2208 13.7126 18.1618 8.10958
26 2 2.2208 10.8816 18.1785 10.9456
175 2 2.2208 5.23891 1.2303 11.0483
176 1 -1.1104 1.14455 -2.92782 12.212
177 1 -1.1104 1.1793 2.70695 12.4275
180 1 -1.1104 1.05141 -2.81952 9.37738
181 1 -1.1104 0.843025 2.70823 9.50916
184 1 -1.1104 1.06182 -0.10133 12.2607
186 2 2.2208 5.16548 -1.41711 8.27486
188 1 -1.1104 1.06725 -0.0458138 9.46892
190 1 -1.1104 3.84546 -2.99021 12.3999
191 1 -1.1104 3.95222 2.57498 12.3049
192 2 2.2208 2.34537 1.27693 8.0883
193 1 -1.1104 3.74963 -2.81257 9.51299
194 1 -1.1104 3.73627 2.78255 9.44379
195 2 2.2208 2.4337 -1.53897 10.9229
196 2 2.2208 2.35804 4.06849 10.8576
197 1 -1.1104 3.81914 -0.202662 12.387
198 1 -1.1104 3.86343 -0.135036 9.72279
187 2 2.2208 5.13677 4.09264 8.06735
8470 2 2.2208 13.7586 9.66004 5.19555
183 1 -1.1104 6.46845 2.72368 9.55499
185 1 -1.1104 6.61635 -0.220171 12.1734
182 1 -1.1104 6.65602 -2.99914 9.73802
189 1 -1.1104 6.75736 -0.0558927 9.46073
8443 2 2.2208 13.5775 1.36113 8.19516
8770 2 2.2208 13.6144 -1.63488 -0.200266
199 1 -1.1104 9.42911 19.5926 12.2113
233 1 -1.1104 9.4498 19.5202 9.43665
30 2 2.2208 7.95001 15.3523 10.7372
154 1 -1.1104 9.47 13.9356 6.71423
204 2 2.2208 -0.294712 18.1387 10.9475
597 2 2.2208 8.00182 3.99847 -0.455279
179 1 -1.1104 6.80647 2.70447 12.3772
205 1 -1.1104 12.3112 -3.06995 6.61628
178 1 -1.1104 6.4943 -3.14633 12.4787
211 2 2.2208 10.7436 1.33182 10.8642
212 1 -1.1104 12.4396 -3.02315 12.2622
213 1 -1.1104 12.2699 2.66177 12.4621
214 1 -1.1104 12.203 -2.90753 9.54477
215 1 -1.1104 12.3011 2.69863 9.53225
216 1 -1.1104 12.308 -0.0232417 12.3777
217 2 2.2208 10.8432 -1.5285 7.95874
219 1 -1.1104 12.3117 -0.215052 9.36796
220 1 -1.1104 9.45056 -2.92525 12.44
221 1 -1.1104 9.49828 2.70296 12.2438
222 2 2.2208 7.95707 1.28571 7.95903
223 1 -1.1104 9.41445 -2.96709 9.552
224 1 -1.1104 9.35111 2.87403 9.47185
225 2 2.2208 8.06273 -1.51958 10.876
227 1 -1.1104 9.50522 -0.177707 12.327
228 1 -1.1104 9.41747 -0.0218179 9.31869
226 2 2.2208 7.89507 4.14435 10.966
218 2 2.2208 10.5615 4.22663 8.03353
333 2 2.2208 2.35727 -1.51974 -0.163495
8518 2 2.2208 13.7581 20.9963 5.2572
29 2 2.2208 -0.379058 12.4788 10.8937
104 2 2.2208 10.7879 20.9397 8.10238
238 1 -1.1104 3.7708 8.50898 6.60862
65 1 -1.1104 6.58825 11.3054 6.66376
78 1 -1.1104 4.00402 11.1224 6.63703
240 2 2.2208 5.2285 6.93845 10.9791
241 2 2.2208 5.15979 12.529 10.8433
242 1 -1.1104 1.05804 8.20018 12.2518
244 1 -1.1104 0.922094 8.38371 9.54143
246 1 -1.1104 0.849876 5.47686 12.3397
247 1 -1.1104 1.0445 11.0599 12.2695
250 2 2.2208 5.15141 9.78686 8.05304
251 1 -1.1104 1.01289 5.50599 9.50767
252 1 -1.1104 1.15721 11.2523 9.56499
255 1 -1.1104 3.83141 8.46077 12.3094
256 2 2.2208 2.29933 6.94516 8.10975
257 2 2.2208 2.51234 12.5406 7.99351
258 1 -1.1104 3.77573 8.3793 9.39951
259 2 2.2208 2.49614 9.70132 11.019
260 1 -1.1104 3.82836 5.40657 12.0598
261 1 -1.1104 3.88442 11.2259 12.382
262 1 -1.1104 3.72549 5.47665 9.36133
263 1 -1.1104 3.92516 11.1226 9.53704
245 1 -1.1104 6.54182 8.44699 9.57561
243 1 -1.1104 6.51551 8.17983 12.3221
249 1 -1.1104 6.65951 11.1017 12.2025
254 1 -1.1104 6.80253 11.2148 9.43187
248 1 -1.1104 6.55513 5.48418 12.3798
231 2 2.2208 -0.437237 20.9657 8.06114
51 2 2.2208 8.06657 20.8438 10.8137
267 1 -1.1104 9.45689 8.26364 6.74664
101 1 -1.1104 9.44316 10.9932 6.72088
253 1 -1.1104 6.58694 5.56489 9.54313
264 1 -1.1104 9.46074 11.1311 9.40848
268 1 -1.1104 9.26567 5.71037 9.51459
270 1 -1.1104 9.4821 11.0999 12.2235
271 1 -1.1104 9.49771 5.61321 12.3517
272 2 2.2208 8.11283 9.75316 10.8915
273 1 -1.1104 9.59474 8.30207 9.56387
274 2 2.2208 8.08725 12.5424 8.08831
275 2 2.2208 7.9263 6.94292 8.07645
276 2 2.2208 10.9226 6.84254 10.8839
277 2 2.2208 10.9099 12.6384 11.0575
278 1 -1.1104 12.3276 8.23025 12.4793
279 1 -1.1104 12.3193 8.33458 9.53488
280 1 -1.1104 12.2193 5.44751 12.1848
281 1 -1.1104 12.253 11.1016 12.4207
282 2 2.2208 10.9301 9.64238 8.07278
283 1 -1.1104 12.2666 5.34799 9.54152
284 1 -1.1104 12.2519 11.0777 9.55789
285 1 -1.1104 9.34359 8.38691 12.28
336 2 2.2208 10.7193 1.24106 -0.188108
337 2 2.2208 7.84847 -1.56395 -0.470229
112 1 -1.1104 6.59951 19.6759 6.61417
53 1 -1.1104 12.3656 19.6156 9.63059
124 1 -1.1104 3.74942 14.0031 6.57869
117 1 -1.1104 1.08942 16.7622 6.50076
108 1 -1.1104 0.987469 14.0174 6.7608
118 1 -1.1104 6.66758 16.8535 6.49942
297 1 -1.1104 6.63936 13.9292 12.219
296 1 -1.1104 6.63201 19.3384 12.1803
630 2 2.2208 5.3029 6.97263 -0.406089
290 1 -1.1104 6.45037 13.8648 9.31228
232 2 2.2208 2.36793 15.3291 10.9084
286 1 -1.1104 3.74713 19.5738 12.259
287 1 -1.1104 3.68056 13.898 12.4013
291 1 -1.1104 0.853328 19.6474 9.3407
292 1 -1.1104 1.09697 16.7372 9.5007
293 2 2.2208 5.27249 20.883 8.01664
294 1 -1.1104 0.981645 14.008 9.55581
295 2 2.2208 5.19917 15.3846 8.12798
298 1 -1.1104 0.981071 19.6306 12.2042
299 1 -1.1104 0.885788 13.9466 12.3424
300 2 2.2208 5.13149 18.0996 10.7806
301 1 -1.1104 3.73434 19.574 9.4723
303 2 2.2208 2.36987 18.1801 8.0772
304 1 -1.1104 3.74823 16.802 9.48165
305 1 -1.1104 3.77399 14.0493 9.52642
307 1 -1.1104 1.21565 16.8007 12.3151
308 1 -1.1104 3.80216 16.6522 12.1761
309 2 2.2208 2.36513 21.0456 10.9476
288 1 -1.1104 6.52336 19.5149 9.3205
289 1 -1.1104 6.62365 16.7451 9.45243
306 1 -1.1104 6.64606 16.6217 12.3167
375 2 2.2208 8.02078 15.3835 -0.518976
230 1 -1.1104 9.28055 13.9775 9.53755
81 1 -1.1104 12.3424 16.6759 12.328
165 1 -1.1104 9.44585 14.0255 12.3397
202 1 -1.1104 9.42601 16.7842 9.43437
52 1 -1.1104 9.50359 16.8597 12.3304
27 1 -1.1104 12.3525 13.8865 12.3339
163 1 -1.1104 9.41135 16.7962 6.65946
149 1 -1.1104 12.1995 16.6173 6.54959
8652 2 2.2208 13.5701 6.87184 8.22157
332 2 2.2208 5.07762 1.33868 -0.446424
8576 2 2.2208 13.5587 3.98924 11.0655
8469 2 2.2208 13.8375 18.0974 2.50287
8988 2 2.2208 13.7055 4.12025 -0.226963
334 2 2.2208 2.43869 4.11011 -0.244629
329 2 2.2208 10.8764 21.0667 13.7767
657 2 2.2208 10.8526 12.6296 -0.235943
8441 2 2.2208 13.5841 4.06898 5.44117
8601 2 2.2208 13.5673 6.81147 2.6165
83 2 2.2208 -0.372636 12.6091 5.29933
8053 2 2.2208 5.18208 -4.37051 -0.201488
8636 2 2.2208 -0.375848 9.76462 2.54865
8637 2 2.2208 -0.349189 6.94453 5.347
318 2 2.2208 10.8523 -1.62572 13.7388
321 2 2.2208 5.22696 9.8006 13.6692
324 2 2.2208 10.9476 9.67889 13.778
323 2 2.2208 8.10589 7.00628 13.7084
327 2 2.2208 5.22995 20.9238 13.6873
372 2 2.2208 2.37429 15.4411 -0.428943
319 2 2.2208 10.7725 4.09299 13.7202
8803 2 2.2208 13.659 9.84593 -0.331564
314 2 2.2208 2.64773 1.27375 13.8219
320 2 2.2208 2.53367 6.79613 13.7385
8058 2 2.2208 2.45496 -4.37238 13.8123
328 2 2.2208 5.17488 15.4046 13.6828
338 2 2.2208 5.17363 1.32284 16.5449
339 1 -1.1104 0.918036 -2.92366 17.9753
340 1 -1.1104 1.01423 2.80905 17.9762
343 1 -1.1104 0.963522 -3.02111 15.2091
345 1 -1.1104 1.03869 2.76465 15.1901
351 1 -1.1104 1.1283 -0.0373931 17.9294
353 2 2.2208 5.33662 -1.6043 19.3885
355 1 -1.1104 1.05204 -0.0729594 15.1966
359 1 -1.1104 3.73476 -2.9617 17.8238
360 1 -1.1104 3.72223 2.59632 17.9936
361 2 2.2208 2.42605 1.26911 19.4635
362 1 -1.1104 3.8346 -3.05837 15.0385
364 1 -1.1104 3.96563 2.70246 15.2104
366 2 2.2208 2.46246 -1.515 16.4385
367 2 2.2208 2.36887 4.0831 16.5916
368 1 -1.1104 3.9108 -0.245815 17.8975
369 1 -1.1104 3.85673 -0.088621 15.1704
354 2 2.2208 5.07786 3.9722 19.279
356 1 -1.1104 0.928463 -0.091572 20.8213
365 1 -1.1104 3.78325 2.55853 20.7515
352 1 -1.1104 6.68416 -0.10867 17.7988
370 1 -1.1104 3.92714 -0.0106718 20.903
357 1 -1.1104 6.57539 -0.107102 14.9387
358 1 -1.1104 6.66827 -0.083775 20.9074
363 1 -1.1104 3.92767 -2.79225 20.6471
347 1 -1.1104 6.60948 -2.9154 15.3408
349 1 -1.1104 6.64868 2.67054 15.2494
344 1 -1.1104 1.03809 -2.86343 20.7874
350 1 -1.1104 6.59994 2.79045 20.5646
8873 2 2.2208 13.6312 6.92354 19.3906
8102 2 2.2208 5.24387 -4.21645 22.1091
8944 2 2.2208 13.7695 18.0974 19.2883
8101 2 2.2208 2.45328 -4.33816 25.1034
342 1 -1.1104 6.61736 2.74851 17.8901
341 1 -1.1104 6.68823 -3.12573 17.9688
381 2 2.2208 10.8216 1.30186 16.5516
382 1 -1.1104 12.3766 -2.94393 17.9722
383 1 -1.1104 12.3367 2.61024 18.001
384 1 -1.1104 12.3324 -3.07066 15.2205
386 1 -1.1104 12.3253 2.66026 15.3238
388 1 -1.1104 12.3201 -0.158676 18.1256
389 2 2.2208 10.9255 -1.46522 19.3343
391 1 -1.1104 12.21 -0.100252 15.2366
393 1 -1.1104 9.5504 -2.90465 18.0483
394 1 -1.1104 9.46266 2.68419 17.8692
395 2 2.2208 8.01315 1.2649 19.3347
396 1 -1.1104 9.47739 -3.01235 15.1251
398 1 -1.1104 9.43674 2.69256 15.0821
400 2 2.2208 8.13911 -1.69055 16.6016
402 1 -1.1104 9.31959 -0.15487 17.9706
403 1 -1.1104 9.46439 -0.274722 15.0799
401 2 2.2208 8.09466 4.13676 16.5318
390 2 2.2208 10.8132 4.07102 19.418
385 1 -1.1104 12.3601 -2.9269 20.7055
387 1 -1.1104 12.0922 2.68068 20.7186
397 1 -1.1104 9.48731 -2.96063 20.7549
404 1 -1.1104 9.53055 -0.0972264 20.6443
392 1 -1.1104 12.4029 0.00487789 20.8453
636 1 -1.1104 9.46253 13.9488 26.3931
17450 2 2.2208 13.6455 -4.35167 24.9698
8800 2 2.2208 -0.487686 -1.48567 24.9023
17420 2 2.2208 -0.362279 -4.24976 22.1813
8100 2 2.2208 10.9437 -4.36771 22.1428
598 2 2.2208 10.858 20.9832 24.9749
9064 2 2.2208 13.6154 9.76971 22.1106
8799 2 2.2208 13.7381 -1.47763 16.4648
414 2 2.2208 5.23293 6.90107 16.482
415 2 2.2208 5.33828 12.5463 16.4816
416 1 -1.1104 1.14721 8.29257 18.0529
418 1 -1.1104 1.16364 8.31851 14.9821
422 1 -1.1104 0.99667 5.5894 17.9068
423 1 -1.1104 1.09721 11.2999 17.8155
426 2 2.2208 5.23122 9.70333 19.3474
427 1 -1.1104 1.17387 5.49534 15.2086
429 1 -1.1104 1.1113 11.1243 15.1993
435 1 -1.1104 4.02557 8.41101 18.0413
436 2 2.2208 2.44178 6.97172 19.3515
437 2 2.2208 2.59809 12.597 19.2646
438 1 -1.1104 3.86669 8.24367 15.1587
440 2 2.2208 2.58909 9.70044 16.4975
441 1 -1.1104 3.74975 5.53184 17.9136
442 1 -1.1104 3.90063 11.137 17.99
443 1 -1.1104 3.84002 5.44368 15.1255
445 1 -1.1104 3.86788 11.1718 15.1499
428 1 -1.1104 1.12878 5.49064 20.7244
430 1 -1.1104 1.12191 11.1232 20.6609
446 1 -1.1104 4.01387 11.1937 20.9106
420 1 -1.1104 6.67753 8.42426 15.0105
444 1 -1.1104 3.93144 5.42846 20.6647
419 1 -1.1104 0.948778 8.40252 20.8249
432 1 -1.1104 6.63629 5.45542 20.7281
417 1 -1.1104 6.66529 8.30772 17.9506
425 1 -1.1104 6.64258 11.2542 17.8532
424 1 -1.1104 6.72697 5.53722 17.8612
421 1 -1.1104 6.60697 8.30723 20.7967
433 1 -1.1104 6.65904 11.0202 15.0646
431 1 -1.1104 6.63502 5.5426 15.0421
434 1 -1.1104 6.84926 11.0559 20.7201
410 2 2.2208 10.928 18.1825 22.1658
8843 2 2.2208 13.7049 18.1907 24.9124
450 2 2.2208 10.8714 6.82598 16.4997
451 2 2.2208 10.8914 12.4044 16.5746
452 1 -1.1104 12.0859 8.26827 17.9717
453 1 -1.1104 12.2267 8.36239 15.2714
455 1 -1.1104 12.4651 5.48988 17.8773
456 1 -1.1104 12.2398 11.1352 18.002
457 2 2.2208 10.768 9.60718 19.2777
458 1 -1.1104 12.2549 5.51118 15.0371
460 1 -1.1104 12.2986 11.0589 15.0604
462 1 -1.1104 9.25105 8.22604 17.8437
463 2 2.2208 8.00175 6.83347 19.241
464 2 2.2208 8.04978 12.5343 19.3383
465 1 -1.1104 9.45268 8.28276 15.0134
467 2 2.2208 8.13548 9.58768 16.5044
468 1 -1.1104 9.53041 5.51132 17.8727
469 1 -1.1104 9.4017 11.0666 17.9273
470 1 -1.1104 9.38877 5.37164 15.1547
472 1 -1.1104 9.44276 11.0602 15.0671
471 1 -1.1104 9.36072 5.55568 20.7157
466 1 -1.1104 9.37556 8.32126 20.684
8802 2 2.2208 13.7936 20.9424 27.7624
8990 2 2.2208 13.704 -1.56327 22.0983
8989 2 2.2208 13.5769 1.29091 24.9915
8796 2 2.2208 -0.376977 20.9146 24.9122
8749 2 2.2208 13.7286 1.26473 13.7566
477 2 2.2208 5.37636 18.1561 16.4706
478 1 -1.1104 1.05083 14.0075 17.8555
479 1 -1.1104 1.29566 19.6422 17.9381
482 1 -1.1104 1.1372 13.9319 15.0801
484 1 -1.1104 0.84543 19.5679 15.1941
490 1 -1.1104 1.01233 16.6682 17.9301
492 2 2.2208 5.34494 15.324 19.2476
493 2 2.2208 5.29088 20.8995 19.2536
494 1 -1.1104 1.00729 16.7138 15.1724
498 1 -1.1104 3.91374 13.9857 17.7767
499 1 -1.1104 4.09901 19.7163 17.6576
500 2 2.2208 2.56194 18.184 19.3176
501 1 -1.1104 3.89548 13.9759 15.0748
503 1 -1.1104 3.72405 19.4792 14.9845
505 2 2.2208 2.46686 15.3526 16.4768
506 2 2.2208 2.37114 20.8723 16.4438
507 1 -1.1104 3.93391 16.8944 17.8106
508 1 -1.1104 3.88114 16.885 15.1062
483 1 -1.1104 0.863348 13.9586 20.6991
489 1 -1.1104 6.61268 19.5832 20.6338
488 1 -1.1104 6.6693 19.5789 15.0083
485 1 -1.1104 0.949204 19.5853 20.6575
496 1 -1.1104 6.69151 16.5272 15.0934
481 1 -1.1104 6.8099 19.5937 17.8678
487 1 -1.1104 6.66796 14.0504 20.7759
486 1 -1.1104 6.70506 13.8875 15.0718
480 1 -1.1104 6.67544 13.9918 17.818
504 1 -1.1104 3.88829 19.4417 20.6276
509 1 -1.1104 3.91217 16.7727 20.649
600 1 -1.1104 9.42554 16.7314 23.503
572 1 -1.1104 9.3646 16.7775 26.2492
491 1 -1.1104 6.76186 16.7852 18.1895
513 2 2.2208 10.8311 18.1684 16.4786
514 1 -1.1104 12.2448 13.8277 17.8286
515 1 -1.1104 12.3366 19.6566 17.9978
516 1 -1.1104 12.2106 13.9048 15.0138
518 1 -1.1104 12.2394 19.599 15.2045
520 1 -1.1104 12.2515 16.6985 17.8736
521 2 2.2208 10.9 15.4051 19.2589
522 2 2.2208 10.8885 20.9646 19.3398
523 1 -1.1104 12.2956 16.5816 15.1438
525 1 -1.1104 9.5491 13.8225 17.7842
526 1 -1.1104 9.56625 19.6261 17.8407
527 2 2.2208 8.10626 18.1954 19.36
528 1 -1.1104 9.39837 13.893 15.0307
530 1 -1.1104 9.49262 19.596 14.9729
532 2 2.2208 8.11843 15.2353 16.4866
533 2 2.2208 7.97077 20.8779 16.4193
534 1 -1.1104 9.44985 16.7627 17.8974
535 1 -1.1104 9.44804 16.8168 15.1663
524 1 -1.1104 12.3029 16.7484 20.7753
529 1 -1.1104 9.29882 13.9323 20.6301
536 1 -1.1104 9.63317 16.8174 20.7066
405 2 2.2208 10.8577 18.1292 27.7776
531 1 -1.1104 9.4595 19.628 20.6761
519 1 -1.1104 12.2869 19.5841 20.8157
497 1 -1.1104 6.72972 16.8194 20.9025
313 2 2.2208 5.19263 -1.64076 13.7438
346 1 -1.1104 1.10602 2.77228 20.7868
605 2 2.2208 8.09948 18.1511 24.766
377 2 2.2208 -0.491853 15.2463 19.4425
541 2 2.2208 5.24915 1.38578 22.2187
542 1 -1.1104 1.2047 -2.96266 23.6005
543 1 -1.1104 1.02111 2.72815 23.4606
546 1 -1.1104 0.937418 -2.99277 26.3953
547 1 -1.1104 0.985187 2.64037 26.3744
550 1 -1.1104 0.935735 -0.154296 23.5006
552 2 2.2208 5.23578 -1.46163 25.08
554 1 -1.1104 0.964018 -0.208742 26.327
556 1 -1.1104 3.89154 -2.87315 23.4703
557 1 -1.1104 3.81481 2.69004 23.7059
558 2 2.2208 2.36894 1.2125 24.8742
559 1 -1.1104 3.87158 -2.79912 26.2836
560 1 -1.1104 3.79691 2.77559 26.4138
561 2 2.2208 2.5322 -1.4605 22.2075
562 2 2.2208 2.39256 4.22011 22.1814
563 1 -1.1104 3.73677 -0.164436 23.6257
564 1 -1.1104 3.77619 -0.106429 26.2374
553 2 2.2208 5.22105 4.19574 25.0282
574 1 -1.1104 12.2148 19.6149 26.3703
348 1 -1.1104 6.77065 -2.84502 20.6419
545 1 -1.1104 6.64572 2.86955 23.4886
544 1 -1.1104 6.59803 -2.80707 23.4071
549 1 -1.1104 6.57641 2.65847 26.365
551 1 -1.1104 6.59948 -0.0564066 23.6827
548 1 -1.1104 6.66177 -3.05465 26.2283
517 1 -1.1104 12.1729 13.9599 20.6716
540 1 -1.1104 12.1924 13.9917 23.402
8168 2 2.2208 -0.463824 -4.4506 16.5814
658 1 -1.1104 9.47656 19.5221 26.4843
8945 2 2.2208 13.6447 21.015 16.5689
399 1 -1.1104 9.50189 2.62956 20.7362
315 2 2.2208 5.21906 4.2018 13.7206
659 2 2.2208 8.06741 15.4343 22.1272
555 1 -1.1104 6.66475 -0.0787843 26.3102
577 2 2.2208 10.7856 1.27573 22.1794
578 1 -1.1104 12.3444 -3.06125 23.577
579 1 -1.1104 12.2071 2.76914 23.5758
580 1 -1.1104 12.2835 -3.05909 26.3912
581 1 -1.1104 12.1731 2.53631 26.4049
582 1 -1.1104 12.2282 -0.0657355 23.5876
583 2 2.2208 10.8704 -1.52612 24.9489
584 2 2.2208 10.8929 4.10616 25.0192
585 1 -1.1104 12.1946 -0.170746 26.2756
586 1 -1.1104 9.51579 -2.89771 23.5866
587 1 -1.1104 9.47514 2.78752 23.464
588 2 2.2208 7.95652 1.35316 24.9439
589 1 -1.1104 9.52431 -2.92936 26.3316
590 1 -1.1104 9.36621 2.65753 26.291
591 2 2.2208 8.06265 -1.50606 22.0656
593 1 -1.1104 9.43607 -0.117585 23.3712
594 1 -1.1104 9.38992 -0.150556 26.2671
592 2 2.2208 8.04551 4.18912 22.1418
603 1 -1.1104 9.49857 14.092 23.4674
576 2 2.2208 10.9121 15.3403 24.8629
8138 2 2.2208 2.43834 -4.21481 19.3533
599 2 2.2208 -0.43188 18.0713 22.0572
596 2 2.2208 8.02727 21.0177 21.9999
8801 2 2.2208 13.7262 20.9016 22.0758
575 1 -1.1104 12.2069 16.8391 23.5323
439 1 -1.1104 3.89799 8.39273 20.8677
606 2 2.2208 5.30505 6.89235 22.1744
607 2 2.2208 5.34634 12.5687 22.1477
608 1 -1.1104 1.19053 8.45027 23.6348
610 1 -1.1104 1.023 8.40533 26.3475
612 1 -1.1104 1.02694 5.54077 23.5393
613 1 -1.1104 1.11162 11.1389 23.552
616 2 2.2208 5.26253 9.71461 24.9295
617 1 -1.1104 1.20857 5.66598 26.4187
618 1 -1.1104 1.04883 11.2947 26.2106
621 1 -1.1104 3.97781 8.25917 23.6555
622 2 2.2208 2.48394 7.1065 25.0093
623 2 2.2208 2.48703 12.6804 24.9222
624 1 -1.1104 3.8214 8.5249 26.3285
625 2 2.2208 2.58474 9.78978 22.1795
626 1 -1.1104 3.96494 5.5558 23.5886
627 1 -1.1104 3.8343 11.199 23.5556
628 1 -1.1104 3.92565 5.64854 26.3872
629 1 -1.1104 3.8499 11.2602 26.3494
614 1 -1.1104 6.73497 5.57145 23.6639
619 1 -1.1104 6.70866 5.48357 26.4381
620 1 -1.1104 6.66838 11.1811 26.1788
609 1 -1.1104 6.69427 8.48721 23.692
611 1 -1.1104 6.77 8.36371 26.4829
573 1 -1.1104 12.3254 13.8917 26.3358
566 1 -1.1104 6.51432 16.798 26.1602
570 2 2.2208 -0.353302 12.5957 16.639
412 1 -1.1104 6.57078 16.7861 23.5565
454 1 -1.1104 12.1511 8.24991 20.7401
459 1 -1.1104 12.2713 5.48126 20.6935
461 1 -1.1104 12.2666 11.1256 20.5425
473 1 -1.1104 9.48437 11.2042 20.7605
602 1 -1.1104 12.2245 16.7253 26.3639
615 1 -1.1104 6.7897 11.3815 23.4149
17421 2 2.2208 13.7149 -4.35775 19.2376
637 1 -1.1104 9.4393 11.2062 26.353
638 1 -1.1104 9.3564 5.3705 26.4113
639 1 -1.1104 9.49106 11.1298 23.5401
640 1 -1.1104 9.47792 5.56684 23.5122
641 2 2.2208 8.12697 9.72578 22.1762
642 1 -1.1104 9.41134 8.23453 26.3925
643 2 2.2208 8.1057 12.5914 24.8498
644 2 2.2208 8.15492 6.91848 24.9329
645 2 2.2208 10.8512 6.90508 22.1535
646 2 2.2208 10.8685 12.5604 21.9809
647 1 -1.1104 12.2666 8.5706 23.6483
648 1 -1.1104 12.2439 8.41587 26.4586
649 1 -1.1104 12.345 5.60655 23.5586
650 1 -1.1104 12.2298 11.2816 23.3919
651 2 2.2208 10.8914 9.93004 24.92
652 1 -1.1104 12.149 5.46156 26.4642
653 1 -1.1104 12.2486 11.2691 26.3869
654 1 -1.1104 9.49216 8.29512 23.696
511 2 2.2208 5.17445 15.3528 24.8807
569 1 -1.1104 12.3178 19.7519 23.5107
604 1 -1.1104 9.44936 19.4314 23.5212
476 1 -1.1104 0.864268 19.6592 23.3544
495 1 -1.1104 0.973961 16.7738 20.8022
502 1 -1.1104 3.83496 13.8764 20.6499
537 1 -1.1104 6.69594 19.6799 23.4908
633 1 -1.1104 6.63221 19.6804 26.3544
510 1 -1.1104 6.70599 14.037 23.5883
571 1 -1.1104 6.5418 13.9177 26.3704
326 2 2.2208 2.35617 18.1556 13.7611
567 1 -1.1104 3.84917 13.9935 23.436
565 1 -1.1104 1.06106 19.5884 26.246
539 1 -1.1104 0.989987 16.7946 26.3895
538 1 -1.1104 1.02014 14.1566 26.2117
595 1 -1.1104 3.77984 19.4394 23.4277
512 2 2.2208 5.2305 21.0618 24.7606
379 2 2.2208 2.42351 15.3464 22.0964
380 2 2.2208 2.35232 20.8336 21.9887
407 1 -1.1104 3.65138 16.7384 23.4211
411 1 -1.1104 0.961757 16.8542 23.5636
413 1 -1.1104 3.7064 14.1022 26.2627
447 1 -1.1104 3.72729 16.9002 26.3171
448 2 2.2208 2.38446 18.1936 24.9398
449 1 -1.1104 3.84809 19.6278 26.2045
474 2 2.2208 5.2847 18.1538 22.1731
475 1 -1.1104 1.12175 14.0004 23.4927
8099 2 2.2208 8.13819 -4.32256 24.9704
8140 2 2.2208 5.0907 -4.39277 16.6595
8798 2 2.2208 13.6915 4.07126 16.5113
325 2 2.2208 8.08295 12.5622 13.5665
632 2 2.2208 5.30559 12.5033 27.6843
376 2 2.2208 5.2398 18.3208 27.6563
409 2 2.2208 8.0571 21.0356 27.7339
331 2 2.2208 8.12551 18.1249 13.6446
601 2 2.2208 -0.466577 18.2283 27.7253
317 2 2.2208 8.05026 1.23638 13.8567
322 2 2.2208 2.30409 12.4979 13.7677
17359 2 2.2208 13.7188 -4.50851 13.8036
8756 2 2.2208 13.7247 12.4472 13.6602
8842 2 2.2208 13.6991 15.4063 27.8495
660 2 2.2208 5.07747 23.8536 5.10662
661 2 2.2208 5.23265 29.3541 5.27584
662 1 -1.1104 1.20186 25.2563 0.990361
663 1 -1.1104 1.01921 25.1864 3.82928
664 1 -1.1104 1.09265 22.3318 0.932712
665 1 -1.1104 1.05856 28.0734 0.991712
666 2 2.2208 5.27477 26.7538 2.35902
667 1 -1.1104 1.05822 22.4352 3.7564
668 1 -1.1104 0.87894 27.9545 3.78193
669 1 -1.1104 3.92127 25.2921 0.903883
670 2 2.2208 2.47088 23.7184 2.35092
671 2 2.2208 2.41786 29.5002 2.42338
672 1 -1.1104 3.82989 25.2042 3.74686
673 2 2.2208 2.41399 26.5735 5.24036
674 1 -1.1104 3.90466 22.4147 0.909287
675 1 -1.1104 3.89202 28.1172 1.01992
676 1 -1.1104 3.82235 22.5213 3.72478
677 1 -1.1104 3.72045 27.9243 3.74494
809 1 -1.1104 3.88719 28.0126 6.66529
807 1 -1.1104 3.84543 25.2342 6.69803
804 1 -1.1104 0.993805 28.0024 6.67837
808 1 -1.1104 3.82837 22.3967 6.48484
684 1 -1.1104 6.71249 28.0723 1.08406
686 1 -1.1104 6.7129 27.9791 3.96847
801 1 -1.1104 1.07965 25.1322 6.5503
681 1 -1.1104 6.62737 25.3855 0.915511
806 1 -1.1104 6.67925 27.9467 6.64572
803 1 -1.1104 1.09044 22.4785 6.73783
996 2 2.2208 10.8862 43.5635 13.5749
995 2 2.2208 7.99447 40.6988 13.6196
682 1 -1.1104 6.6242 25.3005 3.77176
802 1 -1.1104 6.49056 25.0342 6.5832
685 1 -1.1104 6.69153 22.5259 3.85467
683 1 -1.1104 6.63588 22.4413 0.933485
687 2 2.2208 10.8576 23.6983 5.17282
688 2 2.2208 10.8972 29.4446 5.18972
689 1 -1.1104 12.2557 25.1504 0.915955
690 1 -1.1104 12.3006 25.2405 3.65875
691 1 -1.1104 12.3773 22.3678 1.02006
692 1 -1.1104 12.2183 27.8501 0.940222
693 2 2.2208 10.9225 26.6069 2.22648
694 1 -1.1104 12.3025 22.3628 3.83822
695 1 -1.1104 12.2837 27.9957 3.70265
696 1 -1.1104 9.33463 25.2387 0.931628
697 2 2.2208 8.00075 23.9351 2.34635
698 2 2.2208 8.10116 29.402 2.45595
699 1 -1.1104 9.56848 25.2057 3.67478
700 2 2.2208 8.01511 26.4097 5.17636
701 1 -1.1104 9.44132 22.4685 1.14043
702 1 -1.1104 9.50419 28.0674 0.809169
703 1 -1.1104 9.41068 22.3632 3.9303
704 1 -1.1104 9.54558 27.9546 3.60662
836 1 -1.1104 12.0648 28.0652 6.76474
705 2 2.2208 13.5254 43.4364 10.632
805 1 -1.1104 6.6752 22.357 6.73257
837 1 -1.1104 9.33726 25.1141 6.57139
835 1 -1.1104 12.266 22.2916 6.55626
950 1 -1.1104 12.1278 39.3101 12.1042
731 2 2.2208 -0.483651 35.0281 5.1248
708 2 2.2208 5.19532 35.1153 5.34121
709 1 -1.1104 1.01 30.7534 0.905911
710 1 -1.1104 1.06034 36.4683 1.04771
712 1 -1.1104 0.994012 30.8203 3.78751
713 1 -1.1104 1.02354 36.4404 3.66135
715 1 -1.1104 1.20807 33.6795 0.918999
716 2 2.2208 5.18642 32.2798 2.25856
717 2 2.2208 5.31588 37.7795 2.38116
718 1 -1.1104 1.04774 33.5892 3.81971
720 1 -1.1104 3.81122 30.8561 0.765376
721 1 -1.1104 3.89132 36.4356 0.988967
722 2 2.2208 2.52507 35.0623 2.35419
723 1 -1.1104 3.91171 30.734 3.70553
724 1 -1.1104 3.85309 36.4025 3.86108
725 2 2.2208 2.36563 32.3096 5.18678
726 2 2.2208 2.33911 37.8413 5.105
727 1 -1.1104 3.90238 33.6141 0.853434
728 1 -1.1104 3.81089 33.5261 3.72381
866 1 -1.1104 3.79356 33.8663 6.50809
858 1 -1.1104 1.04437 30.9142 6.68493
862 1 -1.1104 0.873446 33.8002 6.67949
732 1 -1.1104 6.43965 30.793 0.823479
734 1 -1.1104 6.76139 33.5607 0.77436
9422 2 2.2208 13.6307 23.7692 2.4432
961 1 -1.1104 12.1135 44.9524 9.28616
859 1 -1.1104 1.00468 36.6265 6.6631
865 1 -1.1104 3.73645 36.5759 6.61586
962 1 -1.1104 12.2611 39.3256 9.25985
719 1 -1.1104 6.5511 33.5915 3.68604
863 1 -1.1104 6.4978 33.58 6.53823
714 1 -1.1104 6.65736 36.3848 3.73809
733 1 -1.1104 6.62941 30.7509 3.79382
711 1 -1.1104 6.47469 36.5467 0.894833
861 1 -1.1104 6.49273 36.5624 6.73982
744 1 -1.1104 9.37144 30.7561 0.942548
735 2 2.2208 10.8637 34.9969 5.33494
736 1 -1.1104 12.3448 30.8219 0.89589
737 1 -1.1104 12.0879 36.408 1.07515
738 1 -1.1104 12.2772 30.9987 3.80377