ITEM: TIMESTEP
60000
ITEM: NUMBER OF ATOMS
17730
ITEM: BOX BOUNDS pp pp pp
-3.6557279672447190e-01 2.7705572796724560e+01
-4.3711917658644390e+00 3.3245119176585939e+02
-3.5699547499118867e-01 2.7696995474990807e+01
ITEM: ATOMS id type q x y z
1 2 2.2208 5.25393 1.24983 5.24203
2 1 -1.1104 0.987375 -2.90549 0.864777
3 1 -1.1104 1.05386 2.66698 0.869195
6 1 -1.1104 0.952722 -2.83291 3.68635
7 1 -1.1104 1.21842 2.80644 3.60537
10 1 -1.1104 0.934087 -0.165327 1.07534
12 2 2.2208 5.14298 -1.55005 2.38988
14 1 -1.1104 1.02216 -0.0276644 3.85763
16 1 -1.1104 3.86437 -2.88349 0.862176
17 1 -1.1104 3.86202 2.68694 0.899946
18 2 2.2208 2.48627 1.31405 2.25265
19 1 -1.1104 3.73741 -2.93203 3.68841
20 1 -1.1104 3.94587 2.55503 3.63541
21 2 2.2208 2.36944 -1.45832 5.17709
23 1 -1.1104 3.77592 -0.0494318 0.801905
24 1 -1.1104 3.79497 -0.119016 3.64786
13 2 2.2208 5.29059 3.94436 2.23862
22 2 2.2208 2.468 4.1048 5.07216
170 1 -1.1104 1.1623 -0.0747363 6.61007
173 1 -1.1104 3.75726 2.72219 6.43966
171 1 -1.1104 6.61197 -0.223132 6.5289
4 1 -1.1104 6.64448 -2.90861 0.957026
168 1 -1.1104 6.58613 -3.03244 6.65908
167 1 -1.1104 1.04364 2.66863 6.54312
166 1 -1.1104 1.11355 -3.01893 6.58368
174 1 -1.1104 3.97004 -0.0646698 6.68148
8 1 -1.1104 6.62968 -3.0268 3.80793
11 1 -1.1104 6.76724 -0.189139 1.02334
9 1 -1.1104 6.75226 2.77893 3.79957
172 1 -1.1104 3.86133 -3.02317 6.58933
169 1 -1.1104 6.61421 2.70453 6.53418
330 2 2.2208 10.931 15.3266 13.5338
8740 2 2.2208 13.6793 18.1605 7.95828
15 1 -1.1104 6.55186 -0.399579 3.68883
328 2 2.2208 5.24207 15.2701 13.505
5 1 -1.1104 6.69655 2.48562 1.01172
31 2 2.2208 10.9699 1.29515 5.25497
32 1 -1.1104 12.2051 -3.0429 0.904009
33 1 -1.1104 12.2565 2.79432 0.90112
34 1 -1.1104 12.3285 -3.06684 3.70713
35 1 -1.1104 12.4205 2.61506 3.82966
36 1 -1.1104 12.2077 -0.0461146 0.945538
37 2 2.2208 10.9699 -1.54313 2.38423
38 2 2.2208 10.9956 3.96638 2.4596
39 1 -1.1104 12.3204 -0.155949 3.85652
40 1 -1.1104 9.4606 -2.94957 0.947762
41 1 -1.1104 9.43592 2.66328 0.934326
42 2 2.2208 8.10262 1.18654 2.44287
43 1 -1.1104 9.53298 -2.97041 3.65387
44 1 -1.1104 9.56769 2.61112 3.82676
45 2 2.2208 8.05666 -1.5453 5.28271
46 2 2.2208 8.12375 4.1084 5.08378
47 1 -1.1104 9.44198 -0.158174 1.02565
48 1 -1.1104 9.43524 -0.246613 3.82062
208 1 -1.1104 9.59197 -2.88189 6.58495
209 1 -1.1104 9.37946 2.69046 6.62837
206 1 -1.1104 12.4095 2.68645 6.62039
205 1 -1.1104 12.3076 -2.94958 6.41726
207 1 -1.1104 12.2596 -0.0634513 6.64466
135 2 2.2208 -0.46748 15.3563 2.3058
165 1 -1.1104 9.41342 13.9228 12.0921
210 1 -1.1104 9.43932 -0.0925212 6.52969
8037 2 2.2208 2.3672 -4.30352 2.38099
30 2 2.2208 7.98639 15.3759 10.728
54 2 2.2208 5.46362 6.88639 5.30507
55 2 2.2208 5.32527 12.5039 5.04676
56 1 -1.1104 1.06103 8.29773 0.994231
58 1 -1.1104 1.22819 8.27681 3.6555
60 1 -1.1104 1.11148 5.37582 0.806365
61 1 -1.1104 0.969657 11.131 0.965439
66 2 2.2208 5.37356 9.60738 2.37412
67 1 -1.1104 1.10382 5.60435 3.67609
68 1 -1.1104 0.988437 11.1149 3.88216
71 1 -1.1104 3.91873 8.33221 0.844371
72 2 2.2208 2.65122 6.91378 2.35377
73 2 2.2208 2.39188 12.4867 2.3781
74 1 -1.1104 4.00719 8.18217 3.69066
75 2 2.2208 2.52427 9.68856 5.16304
76 1 -1.1104 3.96924 5.47111 1.04524
77 1 -1.1104 3.74083 10.9808 0.989325
79 1 -1.1104 3.95475 5.41803 3.77923
80 1 -1.1104 3.86586 10.9578 3.71446
239 1 -1.1104 3.95344 5.48869 6.53627
59 1 -1.1104 6.87433 8.17201 3.86563
62 1 -1.1104 1.05513 11.1597 6.58156
78 1 -1.1104 3.95993 11.0968 6.59564
64 1 -1.1104 6.56772 10.9726 0.952893
69 1 -1.1104 6.82869 5.4049 3.69867
63 1 -1.1104 6.62929 5.31615 0.921146
236 1 -1.1104 0.993202 5.45304 6.50648
238 1 -1.1104 3.96356 8.36424 6.47655
234 1 -1.1104 1.13844 8.31238 6.51866
315 2 2.2208 5.24133 4.05762 13.5335
65 1 -1.1104 6.75333 11.1454 6.40678
27 1 -1.1104 12.3928 13.9492 12.0149
57 1 -1.1104 6.82819 8.17732 1.00657
70 1 -1.1104 6.75008 11.0956 3.63933
84 2 2.2208 10.9086 6.83248 5.16199
85 2 2.2208 10.8986 12.5907 5.04835
86 1 -1.1104 12.3788 8.1795 0.897444
87 1 -1.1104 12.4268 8.30777 3.70205
88 1 -1.1104 12.2323 5.33458 1.03223
89 1 -1.1104 12.2247 10.8622 0.702559
91 2 2.2208 10.9213 9.58984 2.34933
92 1 -1.1104 12.3592 5.41066 3.83864
93 1 -1.1104 12.2815 11.0594 3.58052
94 1 -1.1104 9.55534 8.16273 0.984395
95 2 2.2208 8.08466 6.80767 2.28967
96 2 2.2208 8.04887 12.4417 2.18646
97 1 -1.1104 9.62266 8.28584 3.81238
98 2 2.2208 8.13701 9.84122 5.10671
99 1 -1.1104 9.41044 5.42742 1.02923
100 1 -1.1104 9.38049 10.9715 0.889218
102 1 -1.1104 9.58193 5.47532 3.7007
103 1 -1.1104 9.55428 11.043 3.66404
269 1 -1.1104 9.50608 5.40586 6.61159
235 1 -1.1104 6.80721 8.38407 6.53854
267 1 -1.1104 9.4902 8.21329 6.66399
265 1 -1.1104 12.3358 8.14694 6.54547
266 1 -1.1104 12.328 5.40517 6.61136
90 1 -1.1104 12.2803 11.0945 6.5202
101 1 -1.1104 9.38148 11.2062 6.43481
233 1 -1.1104 9.47422 19.5395 9.26661
8741 2 2.2208 -0.282853 4.13358 2.36663
106 2 2.2208 5.12866 18.1808 5.14732
107 1 -1.1104 0.963955 13.8151 1.01035
109 1 -1.1104 1.16473 19.4751 1.01582
113 1 -1.1104 1.04779 13.8759 3.75627
114 1 -1.1104 1.05756 19.441 3.96188
116 1 -1.1104 1.02837 16.5417 0.935888
119 2 2.2208 5.25727 15.2647 2.44987
120 2 2.2208 5.25868 20.9856 2.19576
121 1 -1.1104 1.08397 16.5465 3.84585
123 1 -1.1104 3.90318 13.7444 1.0346
125 1 -1.1104 3.97941 19.4328 0.894595
127 2 2.2208 2.48486 18.0672 2.46321
128 1 -1.1104 3.78817 13.8327 3.72579
129 1 -1.1104 3.83417 19.5156 3.8069
130 2 2.2208 2.42123 15.1226 5.18308
131 2 2.2208 2.40103 20.8338 5.22222
132 1 -1.1104 3.78732 16.6547 0.886733
134 1 -1.1104 3.81911 16.5615 3.76552
133 1 -1.1104 3.92818 16.6186 6.46934
302 1 -1.1104 1.15718 19.3912 6.70283
117 1 -1.1104 1.05794 16.7091 6.68486
124 1 -1.1104 3.8222 13.8324 6.55988
49 1 -1.1104 12.3096 19.5699 12.1454
229 2 2.2208 8.17451 18.1123 7.99851
311 2 2.2208 -0.350299 15.3307 13.5648
138 1 -1.1104 6.69156 19.7017 0.838055
140 1 -1.1104 6.44798 16.7099 0.848255
115 1 -1.1104 6.68802 14.0022 3.7089
122 1 -1.1104 6.67265 16.7416 3.67873
139 1 -1.1104 6.63515 19.6221 3.63462
110 1 -1.1104 6.61125 13.8842 0.922727
143 1 -1.1104 12.1974 13.8642 6.56463
141 2 2.2208 10.8259 18.227 5.02008
142 1 -1.1104 12.341 13.6635 0.867077
144 1 -1.1104 12.2754 19.4556 0.967364
146 1 -1.1104 12.1757 13.929 3.75586
147 1 -1.1104 12.3313 19.5463 3.70673
148 1 -1.1104 12.2857 16.622 1.09286
150 2 2.2208 10.8557 15.2605 2.30174
151 2 2.2208 10.8925 20.983 2.24902
152 1 -1.1104 12.2376 16.738 3.83614
153 1 -1.1104 9.48098 13.8828 0.929852
155 1 -1.1104 9.49641 19.5224 0.86484
157 2 2.2208 8.00092 18.0475 2.33519
158 1 -1.1104 9.22303 13.9296 3.65181
159 1 -1.1104 9.4918 19.5641 3.58537
160 2 2.2208 8.16304 15.4233 5.1394
161 2 2.2208 8.04188 20.93 5.03115
162 1 -1.1104 9.41589 16.8015 0.989834
164 1 -1.1104 9.48038 16.7876 3.90159
111 1 -1.1104 6.65274 13.878 6.35069
163 1 -1.1104 9.38598 16.7609 6.66366
154 1 -1.1104 9.45918 13.932 6.54216
112 1 -1.1104 6.70308 19.6059 6.50488
202 1 -1.1104 9.3998 16.7491 9.46187
118 1 -1.1104 6.78429 16.7802 6.56062
149 1 -1.1104 12.1916 16.7581 6.49421
145 1 -1.1104 12.3324 19.4615 6.54839
26 2 2.2208 10.8915 18.0498 10.7346
329 2 2.2208 10.8612 20.8368 13.5443
323 2 2.2208 8.15058 6.83196 13.6437
175 2 2.2208 5.40756 1.31391 10.7244
176 1 -1.1104 1.04964 -3.00536 12.2394
177 1 -1.1104 1.07038 2.45651 12.029
180 1 -1.1104 1.0146 -2.85622 9.40778
181 1 -1.1104 1.0758 2.72146 9.2785
184 1 -1.1104 0.96976 -0.298134 12.043
186 2 2.2208 5.19821 -1.50732 7.97967
188 1 -1.1104 0.94644 -0.127965 9.286
190 1 -1.1104 3.87397 -2.98264 12.1462
191 1 -1.1104 3.81163 2.65246 12.1785
192 2 2.2208 2.36867 1.19869 8.01996
193 1 -1.1104 3.82816 -2.93816 9.43387
194 1 -1.1104 3.92145 2.57124 9.27427
195 2 2.2208 2.43093 -1.43062 10.863
196 2 2.2208 2.51759 4.00641 10.753
197 1 -1.1104 4.02062 -0.0919483 12.0858
198 1 -1.1104 3.8399 -0.15367 9.45299
187 2 2.2208 5.2013 4.02805 7.92062
8044 2 2.2208 -0.415313 -4.23165 10.8148
231 2 2.2208 -0.416755 20.6913 7.9906
178 1 -1.1104 6.7392 -2.96838 12.2152
183 1 -1.1104 6.88281 2.70063 9.47473
179 1 -1.1104 6.6181 2.63193 12.0921
314 2 2.2208 2.50303 1.22867 13.6662
8637 2 2.2208 -0.370222 6.88487 5.04823
230 1 -1.1104 9.60064 13.7659 9.40388
324 2 2.2208 10.8847 9.75449 13.5456
331 2 2.2208 8.08225 18.0676 13.5438
199 1 -1.1104 9.52683 19.5347 12.1015
319 2 2.2208 10.8678 4.06913 13.5669
189 1 -1.1104 6.81334 -0.0860298 9.30199
185 1 -1.1104 6.77231 -0.0790882 12.1382
182 1 -1.1104 6.5412 -2.79267 9.42435
211 2 2.2208 10.8688 1.24874 10.6866
212 1 -1.1104 12.3644 -3.01385 12.1725
213 1 -1.1104 12.2562 2.79771 12.1161
214 1 -1.1104 12.2509 -3.11489 9.21568
215 1 -1.1104 12.1702 2.62875 9.32237
216 1 -1.1104 12.304 -0.092931 11.9047
217 2 2.2208 10.8635 -1.68669 7.86802
219 1 -1.1104 12.2474 -0.157253 9.36685
220 1 -1.1104 9.36607 -2.97156 12.2884
221 1 -1.1104 9.43408 2.57447 12.0282
222 2 2.2208 8.17509 1.3439 7.98739
223 1 -1.1104 9.47998 -2.97885 9.44376
224 1 -1.1104 9.51294 2.68774 9.39682
225 2 2.2208 8.18755 -1.48959 10.8767
227 1 -1.1104 9.62806 -0.171121 12.1679
228 1 -1.1104 9.43746 -0.0825596 9.37163
226 2 2.2208 8.14113 4.10908 10.7829
218 2 2.2208 10.9468 4.07175 8.05334
317 2 2.2208 8.07598 1.30157 13.4792
318 2 2.2208 10.9275 -1.61856 13.5415
288 1 -1.1104 6.72435 19.5736 9.4549
8042 2 2.2208 2.38933 -4.45346 7.97137
8636 2 2.2208 -0.393529 9.68897 2.39845
28 2 2.2208 -0.312514 9.70894 7.99778
237 1 -1.1104 6.70876 5.62654 6.71691
322 2 2.2208 2.46517 12.409 13.4698
321 2 2.2208 5.3981 9.678 13.4541
320 2 2.2208 2.39404 6.83363 13.5399
240 2 2.2208 5.19042 6.84417 10.8004
241 2 2.2208 5.4299 12.4625 10.7147
242 1 -1.1104 1.01498 8.16006 11.9116
244 1 -1.1104 1.04275 8.12786 9.30964
246 1 -1.1104 1.12758 5.31944 12.1696
247 1 -1.1104 1.04194 11.0233 12.2136
250 2 2.2208 5.37865 9.59227 7.8488
251 1 -1.1104 1.01115 5.4369 9.33697
252 1 -1.1104 1.05938 10.9635 9.39737
255 1 -1.1104 3.85499 8.32973 12.1551
256 2 2.2208 2.55334 6.82953 7.85574
257 2 2.2208 2.46578 12.4018 7.95175
258 1 -1.1104 3.91176 8.23961 9.25641
259 2 2.2208 2.56013 9.60803 10.5995
260 1 -1.1104 3.92803 5.42508 12.1068
261 1 -1.1104 3.8956 11.0522 12.1239
262 1 -1.1104 3.88706 5.468 9.34125
263 1 -1.1104 3.72721 11.0454 9.28696
254 1 -1.1104 6.79009 11.0238 9.3836
253 1 -1.1104 6.61315 5.32826 9.37
245 1 -1.1104 6.68059 8.31149 9.40218
249 1 -1.1104 6.82555 11.0662 12.0772
243 1 -1.1104 6.66135 8.25773 12.0506
326 2 2.2208 2.47848 18.0976 13.6073
297 1 -1.1104 6.69356 13.8979 12.1391
335 2 2.2208 -0.28966 4.04956 13.5596
248 1 -1.1104 6.71187 5.46492 12.1266
264 1 -1.1104 9.56789 10.9912 9.12272
268 1 -1.1104 9.5943 5.51916 9.49034
270 1 -1.1104 9.56758 11.0762 12.1017
271 1 -1.1104 9.37293 5.5043 12.2877
272 2 2.2208 8.11009 9.67548 10.6632
273 1 -1.1104 9.44536 8.20968 9.3149
274 2 2.2208 8.01988 12.4371 7.91117
275 2 2.2208 8.03374 6.88353 8.02581
276 2 2.2208 10.8331 6.84217 10.8388
277 2 2.2208 10.9177 12.4523 10.842
278 1 -1.1104 12.3115 8.31281 12.2181
279 1 -1.1104 12.4055 8.15174 9.42115
280 1 -1.1104 12.1387 5.39468 12.33
281 1 -1.1104 12.3378 11.0235 12.2562
282 2 2.2208 10.9164 9.59309 7.98179
283 1 -1.1104 12.3864 5.45282 9.56589
284 1 -1.1104 12.2614 10.9821 9.46501
285 1 -1.1104 9.52837 8.37175 12.0716
327 2 2.2208 5.2135 20.9978 13.5407
8058 2 2.2208 2.49497 -4.3586 13.5447
8652 2 2.2208 13.7616 6.8695 7.98497
306 1 -1.1104 6.71501 16.777 12.1082
126 1 -1.1104 3.90935 19.4351 6.70526
81 1 -1.1104 12.3032 16.6394 12.0731
108 1 -1.1104 1.07815 13.8552 6.76236
232 2 2.2208 2.45252 15.2336 10.7103
286 1 -1.1104 3.79736 19.4455 12.2101
287 1 -1.1104 3.71441 13.9928 12.0658
291 1 -1.1104 1.21116 19.4245 9.51129
292 1 -1.1104 1.12098 16.5693 9.43359
293 2 2.2208 5.35638 20.9203 7.91901
294 1 -1.1104 1.13223 13.865 9.45228
295 2 2.2208 5.18699 15.354 7.89197
298 1 -1.1104 0.992732 19.4823 12.1677
299 1 -1.1104 0.939828 13.8465 12.1839
300 2 2.2208 5.3288 18.1445 10.6993
301 1 -1.1104 4.04836 19.5796 9.38347
303 2 2.2208 2.47954 18.0456 8.15574
304 1 -1.1104 3.91717 16.6789 9.38745
305 1 -1.1104 3.85299 13.8833 9.39107
307 1 -1.1104 1.15719 16.6519 12.164
308 1 -1.1104 4.02176 16.7358 12.1639
309 2 2.2208 2.56284 20.8561 10.72
25 2 2.2208 -0.428688 -1.5645 2.36587
290 1 -1.1104 6.6826 13.8362 9.2754
289 1 -1.1104 6.57292 16.6261 9.386
50 1 -1.1104 12.3721 13.9087 9.4032
204 2 2.2208 -0.409619 18.0711 10.7694
296 1 -1.1104 6.68953 19.6667 12.1211
8468 2 2.2208 -0.44045 4.07982 7.96387
52 1 -1.1104 9.41286 16.6976 12.1884
105 1 -1.1104 12.2888 16.7866 9.3573
83 2 2.2208 -0.362301 12.5129 5.1982
51 2 2.2208 8.13903 20.9439 10.8369
104 2 2.2208 10.8065 21.0004 7.78465
53 1 -1.1104 12.1823 19.6513 9.26208
82 2 2.2208 10.8725 15.2254 7.913
156 1 -1.1104 9.41975 19.5609 6.41353
8055 2 2.2208 8.11599 -4.45751 13.797
325 2 2.2208 8.19317 12.5916 13.49
8671 2 2.2208 -0.433688 6.86397 10.5748
200 2 2.2208 -0.388106 -1.52667 7.93078
8739 2 2.2208 13.8185 15.3025 10.6686
8745 2 2.2208 13.7093 18.0359 13.5
8742 2 2.2208 13.7798 1.25431 2.34486
312 2 2.2208 -0.325398 -1.44398 13.6863
201 2 2.2208 -0.393481 1.27689 10.7279
29 2 2.2208 -0.373582 12.3744 10.6927
8576 2 2.2208 13.7295 4.05303 10.8702
8518 2 2.2208 13.7055 20.8391 5.06075
8043 2 2.2208 5.26208 -4.37244 10.8914
17356 2 2.2208 13.6178 -4.33953 2.43342
376 2 2.2208 5.17925 18.1081 -0.588581
338 2 2.2208 5.39595 1.27927 16.4884
339 1 -1.1104 0.979096 -2.71696 17.7052
340 1 -1.1104 1.18817 2.69328 17.8624
343 1 -1.1104 1.13786 -2.86564 15.0202
345 1 -1.1104 1.10416 2.56208 14.9223
351 1 -1.1104 1.14074 -0.0231516 17.7714
353 2 2.2208 5.25264 -1.60865 19.106
354 2 2.2208 5.31727 4.06145 19.2798
355 1 -1.1104 1.06161 -0.146045 15.0025
359 1 -1.1104 3.91095 -2.99112 17.6854
360 1 -1.1104 3.8695 2.69026 17.781
361 2 2.2208 2.49054 1.21814 19.269
362 1 -1.1104 3.98761 -3.03929 14.7817
364 1 -1.1104 4.03164 2.68893 14.9819
366 2 2.2208 2.58754 -1.59456 16.3113
367 2 2.2208 2.52375 4.00782 16.2648
368 1 -1.1104 3.89521 -0.131933 17.7551
369 1 -1.1104 3.98199 -0.265137 14.9
365 1 -1.1104 3.94838 2.67781 20.598
8138 2 2.2208 2.30513 -4.45249 19.2585
346 1 -1.1104 1.04921 2.72299 20.6402
363 1 -1.1104 3.76257 -2.94665 20.4119
356 1 -1.1104 1.05429 -0.176272 20.6468
344 1 -1.1104 0.987999 -2.93147 20.4554
370 1 -1.1104 3.83532 -0.0139661 20.5864
349 1 -1.1104 6.69851 2.68108 14.8695
352 1 -1.1104 6.66247 -0.147029 17.8108
8874 2 2.2208 13.752 12.4448 19.2073
636 1 -1.1104 9.53215 13.8413 26.2718
350 1 -1.1104 6.67149 2.73206 20.6322
572 1 -1.1104 9.4541 16.7983 26.1507
568 2 2.2208 -0.20142 9.52847 19.1189
341 1 -1.1104 6.7404 -2.98056 17.8072
357 1 -1.1104 6.77493 -0.218587 15.0276
342 1 -1.1104 6.71062 2.63012 17.9289
347 1 -1.1104 6.66577 -3.00539 14.9749
381 2 2.2208 10.9151 1.26113 16.2801
382 1 -1.1104 12.2157 -2.90589 17.6593
383 1 -1.1104 12.3615 2.63758 17.726
384 1 -1.1104 12.3893 -2.89465 14.9066
386 1 -1.1104 12.4377 2.70258 14.9402
388 1 -1.1104 12.2203 0.0290521 17.8054
389 2 2.2208 10.8663 -1.46154 19.1761
391 1 -1.1104 12.3048 -0.189664 14.8545
393 1 -1.1104 9.52944 -3.06552 17.8791
394 1 -1.1104 9.42469 2.58346 17.6309
395 2 2.2208 8.10839 1.23285 19.264
396 1 -1.1104 9.55058 -2.89167 15.1339
398 1 -1.1104 9.66525 2.5963 14.841
400 2 2.2208 8.02081 -1.62284 16.3701
402 1 -1.1104 9.25873 -0.312996 17.8188
403 1 -1.1104 9.5365 -0.1658 14.858
401 2 2.2208 8.06352 3.99398 16.1918
385 1 -1.1104 12.2821 -2.97962 20.5908
358 1 -1.1104 6.66739 -0.220124 20.613
392 1 -1.1104 12.2499 -0.190974 20.5247
399 1 -1.1104 9.62673 2.68707 20.536
348 1 -1.1104 6.49362 -2.96417 20.7155
8840 2 2.2208 -0.319236 12.5988 27.4669
404 1 -1.1104 9.5273 -0.153007 20.6479
387 1 -1.1104 12.2293 2.50602 20.4936
397 1 -1.1104 9.32613 -2.93473 20.4559
371 2 2.2208 -0.357958 15.257 24.7585
414 2 2.2208 5.30007 6.75928 16.3571
415 2 2.2208 5.30823 12.5063 16.2601
416 1 -1.1104 1.21233 8.23541 17.7091
418 1 -1.1104 1.06082 8.18717 14.836
422 1 -1.1104 0.994659 5.48353 17.6919
423 1 -1.1104 0.992596 11.0796 17.7951
426 2 2.2208 5.24234 9.54159 19.1998
427 1 -1.1104 1.16581 5.37227 15.0029
429 1 -1.1104 1.12734 11.1181 14.9893
435 1 -1.1104 4.09839 8.22734 17.7308
436 2 2.2208 2.37543 6.72465 19.1127
437 2 2.2208 2.52753 12.3954 19.2529
438 1 -1.1104 3.99351 8.22932 15.012
440 2 2.2208 2.60902 9.5649 16.2388
441 1 -1.1104 3.90368 5.45393 17.8386
442 1 -1.1104 3.93502 10.9922 17.7134
443 1 -1.1104 3.9715 5.37081 14.9804
445 1 -1.1104 3.94962 11.0362 14.8766
446 1 -1.1104 3.80477 10.9023 20.5794
439 1 -1.1104 3.63863 8.15465 20.4838
419 1 -1.1104 0.921867 7.98894 20.4638
424 1 -1.1104 6.79456 5.40958 17.7219
425 1 -1.1104 6.65316 11.0522 17.6454
420 1 -1.1104 6.70962 8.38683 14.8828
431 1 -1.1104 6.68963 5.47461 14.9051
433 1 -1.1104 6.80021 11.1238 14.8048
428 1 -1.1104 1.12173 5.37534 20.4355
510 1 -1.1104 6.75136 13.8514 23.3812
605 2 2.2208 8.09631 18.0142 24.7935
633 1 -1.1104 6.77892 19.4646 26.0704
390 2 2.2208 10.8616 4.008 19.0943
417 1 -1.1104 6.8558 8.20522 17.6727
450 2 2.2208 11.0014 6.86801 16.3533
451 2 2.2208 10.8741 12.4497 16.385
452 1 -1.1104 12.6259 8.40023 17.7998
453 1 -1.1104 12.2624 8.37136 14.9394
455 1 -1.1104 12.3109 5.48234 17.7315
456 1 -1.1104 12.2638 11.1717 17.7597
457 2 2.2208 10.8674 9.53017 19.2818
458 1 -1.1104 12.2281 5.70046 14.8648
460 1 -1.1104 12.2441 11.095 14.9586
462 1 -1.1104 9.61336 8.23453 17.7659
463 2 2.2208 8.1294 6.81529 19.0351
464 2 2.2208 8.03843 12.4979 19.171
465 1 -1.1104 9.57863 8.23417 14.9285
467 2 2.2208 8.1837 9.72617 16.3109
468 1 -1.1104 9.56445 5.38752 17.7666
469 1 -1.1104 9.46703 11.1277 17.752
470 1 -1.1104 9.45117 5.46465 14.991
472 1 -1.1104 9.50027 11.1675 15.0381
432 1 -1.1104 6.62004 5.49717 20.5449
466 1 -1.1104 9.57912 8.17327 20.5426
421 1 -1.1104 6.70675 8.21367 20.5213
473 1 -1.1104 9.48557 10.9889 20.6303
471 1 -1.1104 9.3195 5.47287 20.5279
459 1 -1.1104 12.0404 5.20175 20.6078
434 1 -1.1104 6.64113 10.9271 20.7056
454 1 -1.1104 12.2053 8.05086 20.4088
537 1 -1.1104 6.72302 19.4556 23.3344
477 2 2.2208 5.29229 18.2085 16.3496
478 1 -1.1104 1.17055 13.8829 17.6794
479 1 -1.1104 1.03957 19.4839 17.6374
482 1 -1.1104 1.18696 13.8701 15.0769
484 1 -1.1104 1.03102 19.4786 14.9456
490 1 -1.1104 1.01464 16.638 17.7583
492 2 2.2208 5.22059 15.3142 19.1937
493 2 2.2208 5.20873 20.9453 19.0433
494 1 -1.1104 1.01016 16.7248 14.9278
498 1 -1.1104 4.08319 13.8211 17.6831
499 1 -1.1104 3.85178 19.6891 17.7257
500 2 2.2208 2.44068 18.2034 19.1167
501 1 -1.1104 3.91933 13.8802 14.8707
503 1 -1.1104 3.86779 19.616 14.9764
505 2 2.2208 2.50259 15.2939 16.4341
506 2 2.2208 2.41795 20.9647 16.2448
507 1 -1.1104 3.80383 16.904 17.6271
508 1 -1.1104 3.96899 16.7489 15.0357
483 1 -1.1104 1.17156 13.8557 20.4374
485 1 -1.1104 1.17327 19.6374 20.349
504 1 -1.1104 3.8257 19.5882 20.2843
509 1 -1.1104 3.69738 16.8049 20.5253
495 1 -1.1104 0.945842 16.7357 20.5742
497 1 -1.1104 6.59006 16.6302 20.4312
502 1 -1.1104 3.89877 14.0319 20.5962
8803 2 2.2208 13.7789 9.54046 27.503
597 2 2.2208 8.10912 4.03775 27.6408
601 2 2.2208 -0.323635 18.0404 27.6698
486 1 -1.1104 6.73558 13.9185 14.7568
489 1 -1.1104 6.7081 19.4524 20.4431
488 1 -1.1104 6.7237 19.5164 14.8723
491 1 -1.1104 6.73467 16.747 17.6567
480 1 -1.1104 6.79541 13.9918 17.5994
487 1 -1.1104 6.60491 13.8041 20.534
481 1 -1.1104 6.74767 19.5849 17.8396
496 1 -1.1104 6.59832 16.7523 14.9765
513 2 2.2208 10.9205 18.2015 16.4393
514 1 -1.1104 12.3437 13.9388 17.7083
515 1 -1.1104 12.3929 19.4209 17.764
516 1 -1.1104 12.2987 13.8165 14.7441
518 1 -1.1104 12.2633 19.568 15.0177
520 1 -1.1104 12.4212 16.7695 17.8099
521 2 2.2208 10.9562 15.3271 19.0306
522 2 2.2208 10.88 20.8467 19.2077
523 1 -1.1104 12.4251 16.7088 15.0802
525 1 -1.1104 9.49124 13.8798 17.7593
526 1 -1.1104 9.45848 19.4281 17.7404
527 2 2.2208 8.20249 18.0907 19.1336
528 1 -1.1104 9.4447 13.9776 14.8507
530 1 -1.1104 9.53129 19.4904 14.9768
532 2 2.2208 7.97174 15.3907 16.219
533 2 2.2208 8.15441 20.9787 16.3594
534 1 -1.1104 9.64064 16.7076 17.7805
535 1 -1.1104 9.49616 16.7652 14.9075
517 1 -1.1104 12.4184 13.9852 20.4729
536 1 -1.1104 9.41959 16.6314 20.5365
529 1 -1.1104 9.43328 13.864 20.5283
524 1 -1.1104 12.2206 16.7072 20.559
531 1 -1.1104 9.58919 19.5534 20.4416
519 1 -1.1104 12.468 19.531 20.6007
378 2 2.2208 2.42794 20.9453 27.602
332 2 2.2208 5.29577 1.23174 27.6185
334 2 2.2208 2.37121 4.04793 27.5558
541 2 2.2208 5.34964 1.27684 22.0416
542 1 -1.1104 1.16637 -2.84316 23.2666
543 1 -1.1104 1.1127 2.65845 23.3458
546 1 -1.1104 1.17764 -2.99013 26.1064
547 1 -1.1104 0.936893 2.67508 26.1022
550 1 -1.1104 0.996872 -0.192224 23.5077
552 2 2.2208 5.30604 -1.47575 24.8504
553 2 2.2208 5.2967 4.05133 24.7458
554 1 -1.1104 0.91292 -0.0809502 26.2693
556 1 -1.1104 4.07321 -2.88103 23.4872
557 1 -1.1104 3.96726 2.62623 23.3689
558 2 2.2208 2.4825 1.33044 24.7556
559 1 -1.1104 3.88255 -3.03143 26.2599
560 1 -1.1104 3.76179 2.63908 26.3095
561 2 2.2208 2.46873 -1.56792 21.8951
562 2 2.2208 2.47123 4.00927 21.9184
563 1 -1.1104 3.92694 -0.102544 23.361
564 1 -1.1104 4.03438 -0.0637288 26.1101
548 1 -1.1104 6.7831 -2.82596 26.0715
545 1 -1.1104 6.7657 2.65165 23.5594
555 1 -1.1104 6.71106 -0.100907 26.3537
8796 2 2.2208 -0.328685 20.892 24.6476
551 1 -1.1104 6.784 -0.127826 23.4347
8103 2 2.2208 7.89396 -4.44769 19.2557
333 2 2.2208 2.37886 -1.55929 27.5207
596 2 2.2208 8.04682 20.9008 21.9743
337 2 2.2208 8.0969 -1.47572 27.675
373 2 2.2208 -0.344787 18.09 16.2253
336 2 2.2208 10.7906 1.28405 27.6378
406 2 2.2208 -0.431183 20.922 19.0518
405 2 2.2208 10.8444 18.0352 27.5506
544 1 -1.1104 6.82015 -2.90705 23.4762
549 1 -1.1104 6.67118 2.68562 26.2349
577 2 2.2208 10.8885 1.35402 21.9316
578 1 -1.1104 12.3257 -2.90218 23.2512
579 1 -1.1104 12.1942 2.78701 23.238
580 1 -1.1104 12.1738 -2.94441 25.9698
581 1 -1.1104 12.2334 2.66632 26.1378
582 1 -1.1104 12.3516 -0.156312 23.4896
583 2 2.2208 10.8607 -1.4492 24.7958
584 2 2.2208 10.8105 4.01419 24.6898
585 1 -1.1104 12.2748 -0.244373 26.1954
586 1 -1.1104 9.54355 -2.90731 23.3415
587 1 -1.1104 9.37615 2.5899 23.4119
588 2 2.2208 8.11776 1.22734 24.7888
589 1 -1.1104 9.40792 -2.90629 26.1784
590 1 -1.1104 9.57724 2.58084 26.0653
591 2 2.2208 8.09123 -1.44891 22.0169
593 1 -1.1104 9.57591 -0.098296 23.2975
594 1 -1.1104 9.49627 -0.106414 26.1575
592 2 2.2208 8.06372 4.04184 22.0314
574 1 -1.1104 12.3019 19.5368 26.1828
658 1 -1.1104 9.47394 19.415 26.2239
410 2 2.2208 10.926 18.2832 22.0275
604 1 -1.1104 9.58416 19.6304 23.315
632 2 2.2208 5.15674 12.3436 27.6796
444 1 -1.1104 3.86868 5.45568 20.5783
430 1 -1.1104 1.03648 10.9907 20.5826
606 2 2.2208 5.29375 6.94848 21.9412
607 2 2.2208 5.30881 12.4846 21.9933
608 1 -1.1104 0.912653 8.27884 23.2787
610 1 -1.1104 0.972797 8.19494 26.0648
612 1 -1.1104 0.999466 5.4396 23.271
613 1 -1.1104 1.10603 11.0577 23.5215
616 2 2.2208 5.15364 9.59126 24.8088
617 1 -1.1104 1.10664 5.55071 26.0547
618 1 -1.1104 0.957022 11.089 26.191
621 1 -1.1104 3.79157 8.32383 23.2622
622 2 2.2208 2.45859 6.80207 24.7043
623 2 2.2208 2.58724 12.5141 24.85
624 1 -1.1104 3.76758 8.20097 26.0586
625 2 2.2208 2.34704 9.49279 21.8501
626 1 -1.1104 3.83307 5.50427 23.5227
627 1 -1.1104 3.72987 11.1226 23.3918
628 1 -1.1104 3.93904 5.40305 26.2181
629 1 -1.1104 3.89307 11.0284 26.2918
615 1 -1.1104 6.52443 11.0962 23.4876
611 1 -1.1104 6.6052 8.20906 26.2726
614 1 -1.1104 6.59892 5.60777 23.4396
619 1 -1.1104 6.71778 5.40391 26.2336
8053 2 2.2208 5.23095 -4.25463 27.6223
620 1 -1.1104 6.64594 10.9769 26.2108
631 2 2.2208 2.36281 9.65073 27.5788
600 1 -1.1104 9.54915 16.7458 23.2956
573 1 -1.1104 12.3295 13.7016 26.2619
576 2 2.2208 10.9266 15.3069 24.838
630 2 2.2208 5.20801 6.87249 27.7307
461 1 -1.1104 12.3645 11.0433 20.6388
657 2 2.2208 10.7678 12.2511 27.596
655 2 2.2208 10.8863 6.88707 27.5999
598 2 2.2208 10.9903 20.9016 24.7433
659 2 2.2208 8.16243 15.2849 21.9006
609 1 -1.1104 6.66796 8.29108 23.4285
637 1 -1.1104 9.42912 11.0861 26.1613
638 1 -1.1104 9.42392 5.48714 26.3338
639 1 -1.1104 9.35053 11.0127 23.422
640 1 -1.1104 9.45508 5.43192 23.431
641 2 2.2208 8.14139 9.5461 22.0515
642 1 -1.1104 9.44122 8.17129 26.2295
643 2 2.2208 8.02718 12.4446 24.7734
644 2 2.2208 8.06531 6.8507 24.7617
645 2 2.2208 10.9558 6.67319 21.9508
646 2 2.2208 10.9015 12.5381 21.9014
647 1 -1.1104 12.1681 8.2403 23.2526
648 1 -1.1104 12.2685 8.01515 26.1153
649 1 -1.1104 12.2461 5.49466 23.2949
650 1 -1.1104 12.1798 11.1117 23.3303
651 2 2.2208 10.8342 9.56546 24.6897
652 1 -1.1104 12.172 5.4326 26.1016
653 1 -1.1104 12.235 10.9114 26.0931
654 1 -1.1104 9.52642 8.193 23.3898
570 2 2.2208 -0.216993 12.4487 16.3807
8102 2 2.2208 5.36227 -4.30197 22.0964
571 1 -1.1104 6.75483 13.8875 26.0055
566 1 -1.1104 6.67444 16.6888 26.1352
567 1 -1.1104 3.8792 13.9092 23.2184
565 1 -1.1104 1.07184 19.3225 26.1417
539 1 -1.1104 1.0125 16.6405 26.2048
538 1 -1.1104 1.10126 13.9874 26.2295
595 1 -1.1104 3.83149 19.5636 23.2723
512 2 2.2208 5.25293 20.7875 24.7549
379 2 2.2208 2.3353 15.3689 21.9703
380 2 2.2208 2.46306 21.0058 21.8795
407 1 -1.1104 3.91336 16.757 23.3204
411 1 -1.1104 1.13015 16.6932 23.4803
413 1 -1.1104 4.01212 13.8622 26.1727
447 1 -1.1104 3.81864 16.5654 26.1996
448 2 2.2208 2.47942 18.1517 24.8218
449 1 -1.1104 3.87809 19.4435 26.159
474 2 2.2208 5.27355 18.1178 21.9694
475 1 -1.1104 1.13855 13.8681 23.4607
476 1 -1.1104 1.07547 19.5493 23.1887
511 2 2.2208 5.35183 15.2444 24.6772
656 2 2.2208 7.99588 9.60781 27.4948
377 2 2.2208 -0.336991 15.3317 19.0716
372 2 2.2208 2.45956 15.3087 27.5996
569 1 -1.1104 12.343 19.4278 23.4313
603 1 -1.1104 9.7052 13.8794 23.3646
575 1 -1.1104 12.2474 16.6041 23.4691
375 2 2.2208 7.95406 15.2822 27.6324
540 1 -1.1104 12.4017 13.6657 23.3532
409 2 2.2208 8.10773 20.809 27.4067
602 1 -1.1104 12.163 16.6155 26.3092
8839 2 2.2208 -0.265339 6.82853 27.5323
412 1 -1.1104 6.71811 16.5993 23.3032
634 2 2.2208 -0.375765 9.73642 24.7045
8942 2 2.2208 13.7542 15.2825 16.3132
8798 2 2.2208 13.7825 4.02128 16.4527
9092 2 2.2208 -0.426638 6.85 21.8628
8841 2 2.2208 -0.369855 4.025 19.157
8989 2 2.2208 13.7305 1.21568 24.7971
8797 2 2.2208 13.7196 6.86075 24.6306
8873 2 2.2208 13.803 6.77337 19.0217
374 2 2.2208 -0.326037 1.27563 16.3988
599 2 2.2208 -0.309264 18.1516 21.867
8770 2 2.2208 13.5809 -1.59975 27.5491
8137 2 2.2208 10.866 -4.41815 16.5015
8099 2 2.2208 8.00792 -4.37431 24.7746
8101 2 2.2208 2.4611 -4.31687 24.663
313 2 2.2208 5.36996 -1.5283 13.4788
660 2 2.2208 5.2165 23.7969 5.1621
661 2 2.2208 5.25748 29.3497 5.08803
662 1 -1.1104 0.904288 25.1707 0.790156
663 1 -1.1104 1.13336 25.1963 3.70992
664 1 -1.1104 1.10963 22.3922 0.882369
665 1 -1.1104 1.35241 27.918 1.01602
666 2 2.2208 5.2965 26.5585 2.3899
667 1 -1.1104 1.09311 22.2482 3.79356
668 1 -1.1104 0.881525 28.0294 3.77754
669 1 -1.1104 4.00165 25.192 0.73636
670 2 2.2208 2.45301 23.7422 2.35998
671 2 2.2208 2.41475 29.3786 2.41054
672 1 -1.1104 3.78985 25.0789 3.71193
673 2 2.2208 2.40633 26.6218 5.12988
674 1 -1.1104 3.72995 22.3206 0.949153
675 1 -1.1104 3.96867 27.9928 0.929926
676 1 -1.1104 3.89767 22.3091 3.56075
677 1 -1.1104 3.79849 27.969 3.74348
808 1 -1.1104 3.89372 22.2431 6.43199
685 1 -1.1104 6.71384 22.3024 3.70619
681 1 -1.1104 6.78738 25.1501 1.04457
678 2 2.2208 -0.455718 29.3105 5.13035
801 1 -1.1104 0.971641 25.0551 6.62771
803 1 -1.1104 0.968168 22.2549 6.59315
982 2 2.2208 5.31609 40.5298 -0.418182
683 1 -1.1104 6.62136 22.3116 0.85082
977 2 2.2208 5.27107 46.294 -0.470122
807 1 -1.1104 3.7846 25.0812 6.59932
9432 2 2.2208 -0.313323 43.4921 8.00397
9429 2 2.2208 -0.330473 46.3024 5.26381
731 2 2.2208 -0.328767 35.0391 5.3709
1213 2 2.2208 5.39371 29.3702 -0.364079
682 1 -1.1104 6.54551 25.2128 3.8821
684 1 -1.1104 6.66213 28.0071 0.975467
686 1 -1.1104 6.69962 27.9532 3.78796
687 2 2.2208 10.8659 23.8814 5.22012
688 2 2.2208 10.8936 29.3566 5.21756
689 1 -1.1104 12.2172 25.1766 1.14028
690 1 -1.1104 12.2383 25.1874 3.85418
691 1 -1.1104 12.1433 22.3679 0.910722
692 1 -1.1104 12.2859 27.9285 1.01205
693 2 2.2208 10.8993 26.5821 2.38359
694 1 -1.1104 12.2636 22.2211 3.62076
695 1 -1.1104 12.4127 27.9462 3.69104
696 1 -1.1104 9.62784 25.2918 0.856083
697 2 2.2208 8.0337 23.6906 2.38357
698 2 2.2208 8.00437 29.3828 2.41092
699 1 -1.1104 9.423 25.2631 3.59529
700 2 2.2208 7.96875 26.4542 5.20707
701 1 -1.1104 9.39095 22.5243 1.06831
702 1 -1.1104 9.35839 27.957 0.954448
703 1 -1.1104 9.52241 22.4799 3.81924
704 1 -1.1104 9.50318 28.0771 3.72322
836 1 -1.1104 12.2074 27.8929 6.45611
838 1 -1.1104 9.37096 22.4706 6.4844
984 2 2.2208 2.58767 35.0145 13.7047
839 1 -1.1104 9.43788 27.9863 6.49902
708 2 2.2208 5.29475 34.9559 5.30453
709 1 -1.1104 0.987252 30.7282 0.889584
710 1 -1.1104 0.990073 36.4481 0.98896
712 1 -1.1104 1.13863 30.9225 3.91991
713 1 -1.1104 1.16153 36.5225 3.98515
715 1 -1.1104 1.16943 33.7474 1.05636
716 2 2.2208 5.3269 32.2241 2.4968
717 2 2.2208 5.30492 37.7672 2.44079
718 1 -1.1104 1.05308 33.6556 3.90565
720 1 -1.1104 3.9445 30.8279 1.23428
721 1 -1.1104 4.03646 36.3323 1.22917
722 2 2.2208 2.56571 35.0119 2.60921
723 1 -1.1104 3.80195 30.7774 3.85466
724 1 -1.1104 4.01696 36.5101 3.98378
725 2 2.2208 2.42383 32.2462 5.33402
726 2 2.2208 2.6005 37.8011 5.39936
727 1 -1.1104 3.82301 33.6019 1.11009
728 1 -1.1104 3.80031 33.58 3.95391
859 1 -1.1104 1.19524 36.3975 6.60258
969 2 2.2208 2.35265 29.5782 13.7567
866 1 -1.1104 3.70893 33.6092 6.67262
732 1 -1.1104 6.72056 30.7353 1.0507
733 1 -1.1104 6.56526 30.7702 3.74473
863 1 -1.1104 6.67943 33.6047 6.72293
9425 2 2.2208 -0.287927 37.7759 2.40015
865 1 -1.1104 3.97255 36.3493 6.8724
862 1 -1.1104 0.995428 33.5434 6.63116
971 2 2.2208 5.20586 26.6933 13.6356
711 1 -1.1104 6.78256 36.3145 0.896998
719 1 -1.1104 6.69227 33.5788 3.7661
734 1 -1.1104 6.68914 33.4992 0.969679
714 1 -1.1104 6.65395 36.322 3.73881
744 1 -1.1104 9.55214 30.917 1.00261
735 2 2.2208 10.9143 34.9779 5.2122
736 1 -1.1104 12.2411 30.8047 1.03818
737 1 -1.1104 12.2127 36.4742 0.99738
738 1 -1.1104 12.4153 30.7916 3.79048
739 1 -1.1104 12.1178 36.503 3.8047
740 1 -1.1104 12.329 33.5864 1.14203
741 2 2.2208 10.8481 32.2227 2.43512
742 2 2.2208 10.7283 37.8639 2.42647