ITEM: TIMESTEP
20000
ITEM: NUMBER OF ATOMS
17732
ITEM: BOX BOUNDS pp pp pp
-3.2765542836843348e-01 2.7667655428368189e+01
-3.9199905177149565e+00 3.3199999051770999e+02
-3.2545698869084666e-01 2.7665456988690817e+01
ITEM: ATOMS id type q x y z
1 2 2.2208 5.18055 1.59851 5.37517
2 1 -1.1104 1.08857 -2.53482 1.10217
3 1 -1.1104 1.07009 3.03224 1.23406
6 1 -1.1104 0.993812 -2.51772 3.92765
7 1 -1.1104 1.01064 3.01196 3.99393
10 1 -1.1104 1.01676 0.259918 1.1273
12 2 2.2208 5.23085 -1.1013 2.64215
13 2 2.2208 5.18904 4.46143 2.55922
14 1 -1.1104 1.01625 0.240729 3.96966
16 1 -1.1104 3.87701 -2.55099 1.24549
17 1 -1.1104 3.85991 3.05068 1.13283
18 2 2.2208 2.47721 1.6769 2.54031
19 1 -1.1104 3.83904 -2.61245 3.95572
20 1 -1.1104 3.82156 3.03461 3.87349
21 2 2.2208 2.40376 -1.18788 5.3779
22 2 2.2208 2.32687 4.3758 5.3835
23 1 -1.1104 3.83293 0.257024 1.19858
24 1 -1.1104 3.81518 0.189752 3.95553
9 1 -1.1104 6.67311 3.10188 4.02656
11 1 -1.1104 6.66557 0.344689 1.18415
381 2 2.2208 5.20036 1.70572 -0.230979
382 2 2.2208 2.4496 -1.1736 -0.218601
4 1 -1.1104 6.6338 -2.54056 1.01784
15 1 -1.1104 6.63401 0.287266 3.89361
383 2 2.2208 2.43776 4.50793 -0.229361
104 2 2.2208 13.6569 12.7685 2.56421
166 1 -1.1104 0.941959 -2.52608 6.71196
171 1 -1.1104 6.59902 0.256215 6.7417
51 2 2.2208 8.05146 -3.94123 2.54644
326 1 -1.1104 12.1828 17.0767 12.4191
5 1 -1.1104 6.50201 3.15873 1.13068
8 1 -1.1104 6.65745 -2.50652 3.97308
31 2 2.2208 10.8614 1.63519 5.37089
32 1 -1.1104 12.1487 -2.65074 1.22603
33 1 -1.1104 12.1437 2.98345 1.25286
34 1 -1.1104 12.1656 -2.49167 4.07727
35 1 -1.1104 12.2215 3.02607 4.00407
36 1 -1.1104 12.3251 0.176818 1.23634
37 2 2.2208 10.7473 -1.11372 2.65161
38 2 2.2208 10.8185 4.48582 2.67307
39 1 -1.1104 12.2548 0.214494 3.98992
40 1 -1.1104 9.4281 -2.54437 1.11433
41 1 -1.1104 9.38014 3.04582 1.19176
42 2 2.2208 8.04509 1.73474 2.54823
43 1 -1.1104 9.47577 -2.55598 4.07044
44 1 -1.1104 9.42954 2.97732 3.94132
45 2 2.2208 8.01912 -1.13038 5.40481
46 2 2.2208 8.02563 4.44352 5.40768
47 1 -1.1104 9.46035 0.258241 1.20557
48 1 -1.1104 9.39833 0.285243 3.98298
388 2 2.2208 8.02878 -1.14378 -0.242332
387 2 2.2208 10.721 1.61563 -0.188293
389 2 2.2208 8.07644 4.45247 -0.294497
318 1 -1.1104 9.48851 19.86 9.58588
210 1 -1.1104 9.47362 0.218646 6.75858
230 2 2.2208 13.6194 -1.18946 10.9102
315 1 -1.1104 9.4737 17.0919 12.297
54 2 2.2208 5.1065 7.27981 5.45839
55 2 2.2208 5.18218 12.833 5.30004
56 1 -1.1104 1.01302 8.60912 1.26283
58 1 -1.1104 0.949111 8.68892 3.88511
60 1 -1.1104 1.05915 5.84033 1.08921
61 1 -1.1104 1.04601 11.4395 1.20771
66 2 2.2208 5.16003 10.068 2.5977
67 1 -1.1104 0.938575 5.74942 3.88669
68 1 -1.1104 0.968353 11.5616 4.06716
71 1 -1.1104 3.78565 8.7465 1.13082
72 2 2.2208 2.3629 7.25452 2.58061
73 2 2.2208 2.35266 12.884 2.62653
74 1 -1.1104 3.73813 8.75195 4.03881
75 2 2.2208 2.38635 10.0948 5.44953
76 1 -1.1104 3.82729 5.87655 1.18487
77 1 -1.1104 3.72513 11.4884 1.20486
79 1 -1.1104 3.79343 5.91371 3.93898
80 1 -1.1104 3.72532 11.5042 3.98501
59 1 -1.1104 6.52167 8.56366 4.04673
394 2 2.2208 2.38352 10.1579 -0.223643
395 2 2.2208 5.26291 12.8791 -0.236865
69 1 -1.1104 6.58975 5.82515 3.93522
64 1 -1.1104 6.57952 11.4494 1.09048
57 1 -1.1104 6.56696 8.70738 1.25582
70 1 -1.1104 6.61124 11.4086 3.87098
393 2 2.2208 5.17393 7.30692 -0.234716
398 2 2.2208 10.8037 7.2472 -0.246248
399 2 2.2208 8.03772 10.094 -0.26298
63 1 -1.1104 6.65275 5.82403 1.13677
84 2 2.2208 10.8329 7.23197 5.48462
85 2 2.2208 10.814 12.7465 5.30096
86 1 -1.1104 12.3789 8.5413 1.204
87 1 -1.1104 12.2892 8.6902 3.98272
88 1 -1.1104 12.1941 5.86383 1.12615
89 1 -1.1104 12.2514 11.2951 1.15285
91 2 2.2208 10.7916 10.0091 2.52744
92 1 -1.1104 12.1703 5.85344 4.01277
93 1 -1.1104 12.1799 11.3757 3.89549
94 1 -1.1104 9.40823 8.60653 1.20802
95 2 2.2208 7.90433 7.14673 2.57398
96 2 2.2208 7.97429 12.8859 2.46415
97 1 -1.1104 9.41327 8.61217 4.00724
98 2 2.2208 8.01075 9.95141 5.31944
99 1 -1.1104 9.39559 5.79643 1.1945
100 1 -1.1104 9.39581 11.4416 1.15861
102 1 -1.1104 9.47508 5.79941 4.1152
103 1 -1.1104 9.42118 11.43 3.91762
165 2 2.2208 13.563 18.3166 2.59215
337 2 2.2208 13.5693 15.5832 5.3812
400 2 2.2208 10.8315 12.8554 -0.195567
324 2 2.2208 10.8535 21.1937 8.10021
403 2 2.2208 2.38066 15.7705 -0.141402
106 2 2.2208 5.16331 18.4225 5.4359
107 1 -1.1104 1.14702 14.3316 1.2566
109 1 -1.1104 0.984378 19.9943 1.15084
113 1 -1.1104 0.969364 14.2097 3.96209
114 1 -1.1104 0.961289 20.0163 3.89936
116 1 -1.1104 0.969971 17.12 1.13787
119 2 2.2208 5.2542 15.6046 2.56834
120 2 2.2208 5.21757 21.2389 2.51424
121 1 -1.1104 0.953818 17.0734 3.97396
123 1 -1.1104 3.7729 14.1736 1.17458
125 1 -1.1104 3.86308 19.7858 1.13812
127 2 2.2208 2.27277 18.5399 2.60505
128 1 -1.1104 3.80358 14.3109 3.98211
129 1 -1.1104 3.82577 19.877 3.87674
130 2 2.2208 2.44646 15.6162 5.34674
131 2 2.2208 2.40352 21.2496 5.34898
132 1 -1.1104 3.84436 17.0043 1.20167
134 1 -1.1104 3.65899 17.0654 4.03707
133 1 -1.1104 3.74701 17.1112 6.71108
385 2 2.2208 5.14416 -3.97759 -0.218344
49 2 2.2208 13.6463 1.59587 2.50352
122 1 -1.1104 6.5098 17.0523 3.96123
110 1 -1.1104 6.66062 14.3694 1.14025
115 1 -1.1104 6.69674 14.2135 3.89735
118 1 -1.1104 6.57004 16.9155 6.67821
139 1 -1.1104 6.483 19.8169 3.93369
140 1 -1.1104 6.65963 17.0211 1.16589
138 1 -1.1104 6.64876 19.7349 1.20592
141 2 2.2208 10.7072 18.4463 5.35541
142 1 -1.1104 12.2271 14.1439 1.2105
144 1 -1.1104 12.1982 19.7469 1.09754
146 1 -1.1104 12.2753 14.232 4.0013
147 1 -1.1104 12.1432 19.6891 3.88268
148 1 -1.1104 12.1764 16.9393 1.1344
150 2 2.2208 10.8038 15.6855 2.49616
151 2 2.2208 10.761 21.1241 2.5672
152 1 -1.1104 12.1832 16.9598 3.94223
153 1 -1.1104 9.41918 14.3106 1.09709
155 1 -1.1104 9.36631 19.8775 1.09754
157 2 2.2208 7.9698 18.4484 2.55156
158 1 -1.1104 9.45028 14.1382 3.8635
159 1 -1.1104 9.25994 19.7563 3.97189
160 2 2.2208 7.98596 15.5182 5.37278
161 2 2.2208 7.87751 21.1505 5.30588
162 1 -1.1104 9.42909 17.1414 1.13707
164 1 -1.1104 9.29905 17.0125 3.93183
404 2 2.2208 5.25853 18.4516 -0.177282
328 1 -1.1104 12.2107 14.2228 9.50544
377 2 2.2208 8.01479 15.7766 -0.292725
156 1 -1.1104 9.34537 19.8456 6.78081
375 2 2.2208 13.6666 21.2043 -0.290775
333 2 2.2208 13.6652 15.6425 10.9529
379 2 2.2208 8.04791 21.271 -0.207215
173 1 -1.1104 3.79887 3.00275 6.64468
170 1 -1.1104 0.882877 0.283261 6.78225
52 2 2.2208 10.8326 -3.94986 5.31644
167 1 -1.1104 0.955357 3.12934 6.82358
172 1 -1.1104 3.79943 -2.49677 6.7162
174 1 -1.1104 3.75195 0.204317 6.76524
175 2 2.2208 5.21236 1.77813 11.004
176 1 -1.1104 1.05424 -2.53316 12.3345
177 1 -1.1104 0.986431 3.07764 12.3658
180 1 -1.1104 0.948243 -2.52656 9.49601
181 1 -1.1104 1.00696 2.96894 9.58934
184 1 -1.1104 0.969053 0.306474 12.3044
186 2 2.2208 5.20785 -1.14299 8.19887
187 2 2.2208 5.17538 4.50216 8.05518
188 1 -1.1104 0.970524 0.28442 9.59078
190 1 -1.1104 3.76657 -2.60666 12.3218
191 1 -1.1104 3.7879 3.00125 12.3397
192 2 2.2208 2.38074 1.63714 8.13304
193 1 -1.1104 3.80906 -2.50683 9.49051
194 1 -1.1104 3.74861 3.02687 9.44553
195 2 2.2208 2.3402 -1.11495 10.9144
196 2 2.2208 2.39724 4.41031 10.8936
197 1 -1.1104 3.84133 0.200596 12.2571
198 1 -1.1104 3.79344 0.348438 9.55984
183 1 -1.1104 6.53288 3.15237 9.61452
178 1 -1.1104 6.59473 -2.566 12.2699
185 1 -1.1104 6.69839 0.315913 12.3532
189 1 -1.1104 6.49832 0.332695 9.5916
168 1 -1.1104 6.59896 -2.51858 6.74074
182 1 -1.1104 6.56602 -2.48322 9.58446
232 2 2.2208 10.8284 -3.90465 10.935
340 2 2.2208 13.6872 12.8732 8.12563
206 1 -1.1104 12.1483 2.95049 6.75875
209 1 -1.1104 9.45743 3.04916 6.74942
336 2 2.2208 13.5649 21.1974 5.30571
169 1 -1.1104 6.67612 3.12804 6.93911
179 1 -1.1104 6.63598 3.1142 12.3926
207 1 -1.1104 12.2121 0.164117 6.82412
205 1 -1.1104 12.2281 -2.55941 6.81542
208 1 -1.1104 9.46145 -2.59469 6.77192
211 2 2.2208 10.8056 1.69202 10.93
212 1 -1.1104 12.256 -2.61151 12.4091
213 1 -1.1104 12.2528 2.99098 12.3111
214 1 -1.1104 12.275 -2.59626 9.57988
215 1 -1.1104 12.2168 3.09477 9.5896
216 1 -1.1104 12.2409 0.235921 12.2336
217 2 2.2208 10.798 -1.19939 8.14989
218 2 2.2208 10.7812 4.44352 8.18166
219 1 -1.1104 12.1104 0.283278 9.48623
220 1 -1.1104 9.4638 -2.52774 12.3431
221 1 -1.1104 9.52675 3.04674 12.2817
222 2 2.2208 8.08821 1.6944 8.15239
223 1 -1.1104 9.42336 -2.61977 9.60109
224 1 -1.1104 9.39532 3.08042 9.52074
225 2 2.2208 8.00052 -1.06724 11.0189
226 2 2.2208 8.00271 4.53669 10.8572
227 1 -1.1104 9.48147 0.260615 12.4449
228 1 -1.1104 9.33778 0.203824 9.5243
405 2 2.2208 2.53753 21.3668 -0.199729
330 1 -1.1104 12.2727 14.2549 12.2997
319 1 -1.1104 9.48404 14.1868 9.53816
236 1 -1.1104 0.886995 5.93921 6.75979
238 1 -1.1104 3.72527 8.6973 6.80066
78 1 -1.1104 3.85989 11.5775 6.69938
234 1 -1.1104 1.08938 8.59077 6.74476
65 1 -1.1104 6.72062 11.4403 6.74887
62 1 -1.1104 1.0098 11.4377 6.83223
239 1 -1.1104 3.73668 5.82386 6.72818
240 2 2.2208 5.26188 7.24813 10.9487
241 2 2.2208 5.27636 12.8424 10.9502
242 1 -1.1104 0.953909 8.56095 12.4847
244 1 -1.1104 1.04014 8.61326 9.56412
246 1 -1.1104 1.00833 5.77055 12.3829
247 1 -1.1104 1.04756 11.3226 12.548
250 2 2.2208 5.28323 10.1424 8.19662
251 1 -1.1104 1.04017 5.81618 9.64694
252 1 -1.1104 1.06958 11.4472 9.77552
255 1 -1.1104 3.8198 8.71205 12.4427
256 2 2.2208 2.35235 7.21981 8.22412
257 2 2.2208 2.39599 12.8465 8.20181
258 1 -1.1104 3.87101 8.6554 9.65985
259 2 2.2208 2.44182 10.0097 11.0497
260 1 -1.1104 3.76662 5.81821 12.4328
261 1 -1.1104 3.78828 11.5129 12.2522
262 1 -1.1104 3.84505 5.80589 9.57702
263 1 -1.1104 3.8761 11.438 9.48237
320 2 2.2208 7.96504 18.494 8.1615
249 1 -1.1104 6.67426 11.4791 12.401
323 1 -1.1104 12.2187 16.934 9.51346
145 1 -1.1104 12.1489 19.6954 6.71055
235 1 -1.1104 6.53196 8.69009 6.74987
101 1 -1.1104 9.50628 11.3607 6.81713
265 1 -1.1104 12.1356 8.55776 6.86925
269 1 -1.1104 9.32174 5.79432 6.8884
90 1 -1.1104 12.299 11.3691 6.69777
248 1 -1.1104 6.62832 5.84417 12.3688
237 1 -1.1104 6.58179 5.9248 6.71108
266 1 -1.1104 12.1924 5.81576 6.75461
267 1 -1.1104 9.37286 8.57423 6.7944
243 1 -1.1104 6.5699 8.64356 12.288
245 1 -1.1104 6.61168 8.67257 9.48021
254 1 -1.1104 6.59853 11.3872 9.65727
253 1 -1.1104 6.61406 5.90332 9.51306
264 1 -1.1104 9.41796 11.4119 9.53971
268 1 -1.1104 9.41738 5.87182 9.56491
270 1 -1.1104 9.43706 11.5475 12.3273
271 1 -1.1104 9.39273 5.91086 12.324
272 2 2.2208 8.07932 10.1027 10.9811
273 1 -1.1104 9.48399 8.64595 9.60343
274 2 2.2208 8.06387 12.7649 8.14644
275 2 2.2208 7.97736 7.23375 8.19538
276 2 2.2208 10.8422 7.29807 10.9651
277 2 2.2208 10.9012 12.8737 10.8251
278 1 -1.1104 12.3206 8.6647 12.4641
279 1 -1.1104 12.4 8.77635 9.53394
280 1 -1.1104 12.1678 5.85793 12.3315
281 1 -1.1104 12.1887 11.5341 12.3065
282 2 2.2208 10.832 10.0535 8.20019
283 1 -1.1104 12.1769 5.84278 9.54256
284 1 -1.1104 12.2458 11.5231 9.45177
285 1 -1.1104 9.32442 8.71728 12.3938
149 1 -1.1104 12.3178 17.0162 6.71648
229 2 2.2208 13.6647 1.66427 8.20316
108 1 -1.1104 1.01103 14.2038 6.77331
111 1 -1.1104 6.57386 14.1733 6.7753
302 1 -1.1104 0.983327 19.7407 6.77708
126 1 -1.1104 3.74672 19.7915 6.73018
117 1 -1.1104 0.957943 16.9496 6.71673
288 1 -1.1104 6.73858 19.8753 9.57051
124 1 -1.1104 3.8074 14.2364 6.73859
112 1 -1.1104 6.57449 19.7352 6.80093
310 2 2.2208 2.37929 15.6115 10.977
309 2 2.2208 2.43408 21.1477 10.9639
308 1 -1.1104 3.8383 17.0038 12.3332
307 1 -1.1104 0.885399 17.0964 12.3774
305 1 -1.1104 3.88111 14.2457 9.59951
304 1 -1.1104 3.85648 17.0858 9.42156
303 2 2.2208 2.37514 18.3811 8.13966
301 1 -1.1104 3.8442 19.8089 9.56349
300 2 2.2208 5.24141 18.4784 10.926
299 1 -1.1104 0.975145 14.2113 12.4655
298 1 -1.1104 1.05359 19.8259 12.3566
287 1 -1.1104 3.87974 14.2219 12.4311
295 2 2.2208 5.16515 15.6586 8.10706
294 1 -1.1104 0.994805 14.2318 9.59604
293 2 2.2208 5.19973 21.2367 8.12263
292 1 -1.1104 1.08206 16.9861 9.56752
286 1 -1.1104 3.82855 19.7915 12.3581
291 1 -1.1104 1.04609 19.8308 9.57721
306 1 -1.1104 6.60349 17.0814 12.3321
289 1 -1.1104 6.65494 17.1125 9.47625
290 1 -1.1104 6.65693 14.217 9.51748
297 1 -1.1104 6.68509 14.3408 12.3805
322 1 -1.1104 9.40393 14.3203 12.2926
341 2 2.2208 13.7045 10.0412 11.018
327 1 -1.1104 12.2409 19.7328 9.52922
321 1 -1.1104 9.43792 19.9033 12.3671
325 2 2.2208 10.8493 15.6269 8.0969
314 1 -1.1104 9.40711 16.9778 9.53692
163 1 -1.1104 9.35471 16.9867 6.78671
154 1 -1.1104 9.41207 14.1366 6.67311
143 1 -1.1104 12.246 14.1656 6.69781
316 2 2.2208 8.07464 21.2992 10.8274
331 2 2.2208 10.8615 18.3794 10.9363
296 1 -1.1104 6.64042 19.848 12.3464
329 1 -1.1104 12.1966 19.8732 12.3577
332 2 2.2208 13.5232 18.3873 8.12125
317 2 2.2208 8.04197 15.6291 10.9179
338 2 2.2208 13.6078 4.43922 11.0001
25 2 2.2208 -0.34648 -1.17593 2.56691
345 2 2.2208 13.6329 21.1655 10.8918
50 2 2.2208 13.5666 -1.245 5.40057
392 2 2.2208 13.6618 4.39559 -0.211559
105 2 2.2208 13.6481 7.23804 2.58202
334 2 2.2208 13.6926 4.34826 5.36431
378 2 2.2208 10.7349 18.4716 -0.299047
349 2 2.2208 2.44401 1.67484 13.689
374 2 2.2208 13.6198 15.5872 -0.284086
406 2 2.2208 5.17495 1.66602 16.5179
407 1 -1.1104 1.11431 -2.51385 17.8867
408 1 -1.1104 0.908269 3.05395 17.9921
411 1 -1.1104 1.04077 -2.58094 15.137
413 1 -1.1104 1.05269 3.08222 15.1997
419 1 -1.1104 1.11155 0.293542 17.8568
421 2 2.2208 5.26954 -1.09564 19.3815
422 2 2.2208 5.22049 4.42507 19.3509
423 1 -1.1104 1.00535 0.317669 15.1022
427 1 -1.1104 3.87721 -2.50302 17.9563
428 1 -1.1104 3.82343 3.00146 17.925
429 2 2.2208 2.39772 1.70486 19.3049
430 1 -1.1104 3.89189 -2.50249 15.1579
432 1 -1.1104 3.8444 3.12017 15.1355
434 2 2.2208 2.43545 -1.15387 16.5391
435 2 2.2208 2.44033 4.33968 16.5688
436 1 -1.1104 3.8813 0.287607 17.9834
437 1 -1.1104 3.75935 0.329373 15.1139
420 1 -1.1104 6.66588 0.239951 17.9345
637 2 2.2208 -0.370037 -3.88405 22.144
425 1 -1.1104 6.62763 0.221466 15.159
724 2 2.2208 -0.376822 21.407 24.9592
440 2 2.2208 5.20927 -3.97092 16.5066
409 1 -1.1104 6.60772 -2.60028 17.9533
410 1 -1.1104 6.67651 3.0073 18.0158
352 2 2.2208 5.1547 4.46934 13.7836
348 2 2.2208 5.2779 -1.04354 13.6601
371 2 2.2208 5.2363 15.6529 13.7912
608 1 -1.1104 12.1845 14.29 23.5019
643 2 2.2208 -0.330005 1.63655 22.167
664 1 -1.1104 9.51035 14.2244 23.4093
644 2 2.2208 -0.47249 4.51086 24.9563
357 2 2.2208 10.8291 4.48653 13.7322
415 1 -1.1104 6.7273 -2.52778 14.9804
417 1 -1.1104 6.51354 3.01036 15.1586
449 2 2.2208 10.9138 1.57269 16.5187
450 1 -1.1104 12.3059 -2.66642 18.0499
451 1 -1.1104 12.2361 3.02316 17.9854
452 1 -1.1104 12.3476 -2.57601 15.1908
454 1 -1.1104 12.2745 3.03524 15.1695
456 1 -1.1104 12.2863 0.233308 17.9682
457 2 2.2208 10.8553 -1.26233 19.3732
458 2 2.2208 10.8956 4.52485 19.3096
459 1 -1.1104 12.3399 0.239631 15.0616
461 1 -1.1104 9.47266 -2.57753 18.0414
462 1 -1.1104 9.44967 3.00654 17.9088
463 2 2.2208 8.07661 1.59977 19.3415
464 1 -1.1104 9.5787 -2.558 15.0808
466 1 -1.1104 9.41593 3.03364 15.1253
468 2 2.2208 7.99721 -1.11735 16.4776
469 2 2.2208 8.01917 4.40346 16.4964
470 1 -1.1104 9.38933 0.206558 17.9409
471 1 -1.1104 9.53027 0.317462 15.0815
472 1 -1.1104 9.54435 0.161161 20.7565
455 1 -1.1104 12.2076 2.98685 20.7622
356 2 2.2208 10.9234 -1.15238 13.7561
607 2 2.2208 10.8852 18.4531 22.1943
355 2 2.2208 8.15007 1.70214 13.7493
605 2 2.2208 13.6826 18.4252 24.9705
416 1 -1.1104 6.63565 -2.50738 20.7625
465 1 -1.1104 9.38689 -2.58241 20.7533
723 2 2.2208 -0.361144 18.4824 22.1702
579 2 2.2208 13.6971 4.46521 16.514
361 2 2.2208 2.43484 12.8071 13.8182
482 2 2.2208 5.25393 7.28921 16.5836
483 2 2.2208 5.32876 12.9014 16.5764
484 1 -1.1104 1.02088 8.63272 18.0189
486 1 -1.1104 1.08874 8.62867 15.2099
490 1 -1.1104 1.11496 5.84166 17.945
491 1 -1.1104 1.12348 11.5466 17.9549
494 2 2.2208 5.21703 10.0185 19.3669
495 1 -1.1104 1.0755 5.86748 15.2487
497 1 -1.1104 1.01639 11.438 15.2407
503 1 -1.1104 3.92668 8.63862 18.0189
504 2 2.2208 2.47761 7.16972 19.3927
505 2 2.2208 2.45605 12.9469 19.3662
506 1 -1.1104 3.81168 8.62064 15.2172
508 2 2.2208 2.51441 10.0657 16.5817
509 1 -1.1104 3.85039 5.72784 17.9117
510 1 -1.1104 3.95983 11.4309 17.8576
511 1 -1.1104 3.84206 5.91136 15.1739
513 1 -1.1104 3.7848 11.4702 15.0726
496 1 -1.1104 1.03289 5.81375 20.8134
359 2 2.2208 2.36693 7.23187 13.8641
370 2 2.2208 13.6918 1.6435 13.7012
667 2 2.2208 8.10157 18.5123 24.9704
380 2 2.2208 13.7013 18.4907 13.8218
364 2 2.2208 10.8496 10.1097 13.7178
363 2 2.2208 7.9223 7.27735 13.8044
599 1 -1.1104 9.4943 19.7905 20.8437
492 1 -1.1104 6.61617 5.80769 17.9766
488 1 -1.1104 6.58638 8.75363 15.19
501 1 -1.1104 6.71546 11.4149 15.1407
485 1 -1.1104 6.68721 8.68835 17.9905
493 1 -1.1104 6.70452 11.5012 17.9445
499 1 -1.1104 6.57389 5.84018 15.1431
518 2 2.2208 10.8412 7.12658 16.519
519 2 2.2208 10.922 12.8671 16.6011
520 1 -1.1104 12.3034 8.61386 17.9776
521 1 -1.1104 12.2654 8.71953 15.1698
523 1 -1.1104 12.2969 5.80376 17.9611
524 1 -1.1104 12.3185 11.4659 18.021
525 2 2.2208 10.8651 10.004 19.3656
526 1 -1.1104 12.2535 5.84613 15.0929
528 1 -1.1104 12.2837 11.5654 15.1663
530 1 -1.1104 9.45743 8.55789 17.8615
531 2 2.2208 8.06424 7.21337 19.3238
532 2 2.2208 8.11197 12.7774 19.4053
533 1 -1.1104 9.37908 8.63095 15.1593
535 2 2.2208 8.04762 10.0426 16.5647
536 1 -1.1104 9.44707 5.81349 17.8923
537 1 -1.1104 9.50915 11.3693 17.9766
538 1 -1.1104 9.39187 5.7726 15.0754
540 1 -1.1104 9.47758 11.5257 15.2777
365 2 2.2208 8.17084 12.903 13.7272
635 1 -1.1104 12.2458 19.9163 26.3276
732 1 -1.1104 6.54758 17.1113 26.3662
545 2 2.2208 5.25331 18.3847 16.5905
546 1 -1.1104 1.09084 14.3754 17.9348
547 1 -1.1104 1.08887 19.8877 17.8999
550 1 -1.1104 1.05214 14.3075 15.1976
552 1 -1.1104 1.07953 19.9436 15.144
558 1 -1.1104 1.07035 17.0713 17.9884
560 2 2.2208 5.29314 15.5965 19.3735
561 2 2.2208 5.2528 21.1639 19.3188
562 1 -1.1104 0.982915 17.1369 15.1479
566 1 -1.1104 3.88795 14.3443 18.0423
567 1 -1.1104 3.87325 19.8613 18.0172
568 2 2.2208 2.45556 18.5123 19.3886
569 1 -1.1104 3.90704 14.2921 15.1628
571 1 -1.1104 3.84385 19.843 15.247
573 2 2.2208 2.45545 15.6699 16.4921
574 2 2.2208 2.49142 21.2849 16.5971
575 1 -1.1104 3.80615 17.0932 17.9523
576 1 -1.1104 3.78288 17.0626 15.1482
577 1 -1.1104 3.84266 16.9766 20.7426
369 2 2.2208 5.23226 21.2431 13.8186
556 1 -1.1104 6.60266 19.746 15.1504
548 1 -1.1104 6.69634 14.2528 17.9568
559 1 -1.1104 6.63783 16.9721 18.0209
564 1 -1.1104 6.6397 16.968 15.2068
634 1 -1.1104 12.228 14.235 26.3618
638 2 2.2208 10.8477 15.7224 24.872
481 2 2.2208 -0.332088 7.3108 16.678
636 1 -1.1104 12.3576 17.0404 23.5467
549 1 -1.1104 6.61315 19.7946 17.9792
554 1 -1.1104 6.68217 14.2108 15.0868
581 2 2.2208 10.8764 18.3944 16.5972
582 1 -1.1104 12.3625 14.2437 17.9577
583 1 -1.1104 12.3512 19.807 17.9457
584 1 -1.1104 12.4047 14.3184 15.1912
586 1 -1.1104 12.2563 19.9555 15.2239
588 1 -1.1104 12.3022 16.9936 18.0038
589 2 2.2208 10.8678 15.5966 19.3625
590 2 2.2208 10.8968 21.3113 19.3351
591 1 -1.1104 12.3425 17.0786 15.2184
593 1 -1.1104 9.53571 14.2744 17.8786
594 1 -1.1104 9.49546 19.9627 17.9617
595 2 2.2208 8.09366 18.4066 19.3383
596 1 -1.1104 9.51506 14.3322 15.1057
598 1 -1.1104 9.45835 19.8395 15.101
600 2 2.2208 8.17373 15.6323 16.4765
601 2 2.2208 8.05944 21.2782 16.5956
602 1 -1.1104 9.48316 17.0048 17.9506
603 1 -1.1104 9.4732 17.0452 15.1994
698 1 -1.1104 9.46035 19.9172 26.295
663 1 -1.1104 12.1831 17.0642 26.4805
604 1 -1.1104 9.50873 16.9205 20.7629
673 1 -1.1104 9.35609 14.3267 26.3138
478 2 2.2208 13.6375 21.2521 16.4633
373 2 2.2208 10.8492 15.7124 13.7445
592 1 -1.1104 12.2464 17.0253 20.7664
414 1 -1.1104 1.05276 3.08571 20.7056
433 1 -1.1104 3.89112 3.01924 20.7746
424 1 -1.1104 0.924702 0.199666 20.6846
426 1 -1.1104 6.59652 0.263875 20.7339
438 1 -1.1104 3.76742 0.269388 20.7443
412 1 -1.1104 1.032 -2.58155 20.6196
431 1 -1.1104 3.83458 -2.55861 20.7221
609 2 2.2208 5.21188 1.63623 22.1811
610 1 -1.1104 0.937089 -2.48685 23.4658
611 1 -1.1104 0.895102 3.13902 23.569
614 1 -1.1104 0.986497 -2.55991 26.2589
615 1 -1.1104 1.13422 3.14218 26.321
618 1 -1.1104 1.0749 0.387076 23.4967
620 2 2.2208 5.2217 -1.17331 24.9463
621 2 2.2208 5.24883 4.42018 24.9288
622 1 -1.1104 1.07427 0.348132 26.3418
624 1 -1.1104 3.74772 -2.55616 23.6078
625 1 -1.1104 3.91445 3.07668 23.5987
626 2 2.2208 2.51211 1.64929 25.0516
627 1 -1.1104 3.72867 -2.60459 26.3766
628 1 -1.1104 3.83247 3.05876 26.3738
629 2 2.2208 2.45312 -1.15451 22.1119
630 2 2.2208 2.43812 4.42938 22.2089
631 1 -1.1104 3.85116 0.204329 23.5613
632 1 -1.1104 3.81074 0.231703 26.3961
736 1 -1.1104 6.62497 19.9049 23.6222
617 1 -1.1104 6.73181 3.01742 26.2029
613 1 -1.1104 6.64816 2.95782 23.5069
747 1 -1.1104 6.63868 16.973 23.5571
418 1 -1.1104 6.70297 3.07125 20.796
453 1 -1.1104 12.1845 -2.63206 20.8054
467 1 -1.1104 9.50954 3.00524 20.6639
616 1 -1.1104 6.64596 -2.48181 26.269
612 1 -1.1104 6.57873 -2.60999 23.5019
597 1 -1.1104 9.52434 14.2228 20.6305
460 1 -1.1104 12.3184 0.0563923 20.8153
623 1 -1.1104 6.64712 0.279816 26.3319
619 1 -1.1104 6.58212 0.199624 23.6292
645 2 2.2208 10.8441 1.62065 22.118
646 1 -1.1104 12.2549 -2.69234 23.5591
647 1 -1.1104 12.1244 2.93868 23.6613
648 1 -1.1104 12.3091 -2.52725 26.4232
649 1 -1.1104 12.2603 2.984 26.473
650 1 -1.1104 12.227 0.131317 23.6278
651 2 2.2208 10.8194 -1.22587 24.971
652 2 2.2208 10.8277 4.41482 24.9219
653 1 -1.1104 12.1513 0.234219 26.5177
654 1 -1.1104 9.44329 -2.60376 23.5001
655 1 -1.1104 9.40663 3.05169 23.4649
656 2 2.2208 8.01898 1.67455 24.8685
657 1 -1.1104 9.4052 -2.6696 26.3266
658 1 -1.1104 9.52869 3.09521 26.3211
659 2 2.2208 8.01109 -1.21923 22.1839
660 2 2.2208 8.00511 4.47085 22.1275
661 1 -1.1104 9.38046 0.224248 23.5822
662 1 -1.1104 9.34139 0.232032 26.3052
665 1 -1.1104 9.43562 19.9193 23.5323
585 1 -1.1104 12.2612 14.203 20.7543
587 1 -1.1104 12.3038 19.8635 20.7857
487 1 -1.1104 1.0699 8.73091 20.7104
514 1 -1.1104 3.86203 11.3638 20.712
502 1 -1.1104 6.63499 11.4754 20.738
512 1 -1.1104 3.862 5.8271 20.7333
507 1 -1.1104 3.85003 8.60821 20.7041
498 1 -1.1104 1.13892 11.56 20.8385
674 2 2.2208 5.2179 7.31249 22.1021
675 2 2.2208 5.30641 12.8225 22.2181
676 1 -1.1104 1.05627 8.68081 23.5041
678 1 -1.1104 1.02932 8.78391 26.3767
680 1 -1.1104 1.0525 5.89229 23.6016
681 1 -1.1104 1.03401 11.5262 23.5343
684 2 2.2208 5.20427 10.0147 24.9148
685 1 -1.1104 1.12384 5.92452 26.3122
686 1 -1.1104 1.03127 11.5931 26.44
689 1 -1.1104 3.81472 8.72776 23.4691
690 2 2.2208 2.51261 7.25646 24.94
691 2 2.2208 2.48964 12.9266 24.9889
692 1 -1.1104 3.78452 8.70607 26.3217
693 2 2.2208 2.47262 10.0652 22.1906
694 1 -1.1104 3.83061 5.94888 23.5265
695 1 -1.1104 3.82459 11.4939 23.5881
696 1 -1.1104 3.83059 5.89635 26.3471
697 1 -1.1104 3.77306 11.4588 26.3712
677 1 -1.1104 6.59509 8.60452 23.5263
687 1 -1.1104 6.60438 5.87444 26.3609
679 1 -1.1104 6.54003 8.70611 26.4106
688 1 -1.1104 6.65729 11.4604 26.2151
641 2 2.2208 10.8138 21.3954 24.8897
489 1 -1.1104 6.61789 8.63706 20.7275
522 1 -1.1104 12.2337 8.68407 20.8197
539 1 -1.1104 9.45725 5.82179 20.6688
541 1 -1.1104 9.50023 11.3556 20.7128
683 1 -1.1104 6.66717 11.3459 23.5809
529 1 -1.1104 12.2665 11.415 20.7773
534 1 -1.1104 9.38687 8.58699 20.7072
527 1 -1.1104 12.2476 5.92233 20.6466
500 1 -1.1104 6.6902 5.8916 20.7989
682 1 -1.1104 6.65965 5.89287 23.6037
705 1 -1.1104 9.39572 11.4174 26.34
706 1 -1.1104 9.42856 5.93207 26.3628
707 1 -1.1104 9.33673 11.5033 23.517
708 1 -1.1104 9.49098 5.79942 23.5518
709 2 2.2208 8.03335 10.0332 22.0647
710 1 -1.1104 9.35877 8.70367 26.3911
711 2 2.2208 8.05697 12.867 24.9128
712 2 2.2208 8.09251 7.24597 24.9591
713 2 2.2208 10.8432 7.17801 22.1347
714 2 2.2208 10.8893 12.8213 22.1191
715 1 -1.1104 12.3402 8.6451 23.6215
716 1 -1.1104 12.2489 8.58596 26.448
717 1 -1.1104 12.1563 5.66671 23.4801
718 1 -1.1104 12.1905 11.3906 23.5179
719 2 2.2208 10.8507 10.0574 24.9433
720 1 -1.1104 12.1835 5.84318 26.2916
721 1 -1.1104 12.1676 11.4355 26.4204
722 1 -1.1104 9.50908 8.6323 23.572
700 2 2.2208 8.09407 21.2948 22.1481
730 1 -1.1104 6.57218 14.2411 26.3316
570 1 -1.1104 3.93824 14.1065 20.8191
553 1 -1.1104 1.08342 19.911 20.7898
572 1 -1.1104 3.86638 19.8953 20.8094
557 1 -1.1104 6.67735 19.9648 20.721
565 1 -1.1104 6.64977 17.0167 20.766
739 1 -1.1104 6.67824 14.1367 23.5301
563 1 -1.1104 1.08757 17.1545 20.7809
551 1 -1.1104 1.08019 14.3591 20.7499
748 1 -1.1104 1.01791 17.1571 23.5299
746 1 -1.1104 3.87548 14.2508 26.4188
745 1 -1.1104 3.81942 17.103 26.3197
744 2 2.2208 2.46996 18.5644 24.9353
750 2 2.2208 2.48883 21.428 22.1404
749 1 -1.1104 3.79907 17.056 23.6057
727 2 2.2208 2.50225 15.6882 22.1691
729 1 -1.1104 3.8652 19.8544 23.5735
731 1 -1.1104 3.84414 14.2573 23.6287
733 1 -1.1104 1.08019 19.884 26.3371
734 1 -1.1104 0.981818 17.1331 26.4147
735 1 -1.1104 1.03316 14.3499 26.3837
737 2 2.2208 5.36312 21.3303 24.9358
738 2 2.2208 5.23602 15.6539 24.9545
740 1 -1.1104 1.01077 19.956 23.4976
741 1 -1.1104 1.08252 14.3807 23.6874
742 2 2.2208 5.2108 18.4189 22.1846
743 1 -1.1104 3.88047 19.9158 26.3551
555 1 -1.1104 6.76746 14.24 20.6961
633 1 -1.1104 12.2687 19.8461 23.6205
670 1 -1.1104 6.67028 19.8939 26.3887
704 1 -1.1104 9.43158 17.0211 26.2283
699 2 2.2208 8.0008 15.671 22.151
701 1 -1.1104 9.44976 17.0843 23.5416
671 2 2.2208 13.6281 -1.28451 22.1486
445 2 2.2208 13.6927 9.95124 22.1374
642 2 2.2208 -0.331916 -1.05028 24.9337
725 2 2.2208 -0.378765 15.743 24.9596
703 2 2.2208 -0.251488 12.9816 22.2142
702 2 2.2208 -0.275546 10.1345 24.9466
517 2 2.2208 13.6805 12.8888 19.4218
372 2 2.2208 10.8528 21.3894 13.7196
376 2 2.2208 8.03106 18.4872 13.7434
368 2 2.2208 2.41226 18.4607 13.6814
360 2 2.2208 5.22166 10.1468 13.666
751 2 2.2208 5.20174 24.0203 5.38021
752 2 2.2208 5.29374 29.6607 5.43615
753 1 -1.1104 1.08688 25.4843 1.32575
754 1 -1.1104 1.02886 25.5596 4.13863
755 1 -1.1104 1.11706 22.7535 1.10636
756 1 -1.1104 1.08021 28.2769 1.21687
757 2 2.2208 5.33061 26.802 2.6109
758 1 -1.1104 1.03614 22.7758 4.04955
759 1 -1.1104 1.13977 28.3275 4.02258
760 1 -1.1104 3.97715 25.4361 1.18568
761 2 2.2208 2.4413 24.2011 2.58382
762 2 2.2208 2.519 29.721 2.57139
763 1 -1.1104 3.80028 25.4946 3.94669
764 2 2.2208 2.5099 26.8375 5.43217
765 1 -1.1104 3.92927 22.6764 1.0971
766 1 -1.1104 3.91796 28.1618 1.21405
767 1 -1.1104 3.80815 22.6315 3.94741
768 1 -1.1104 3.93187 28.3835 4.01794
775 1 -1.1104 6.66626 28.1908 1.15086
894 1 -1.1104 0.943419 22.6473 6.84953
773 1 -1.1104 6.65456 25.364 3.90523
776 1 -1.1104 6.62842 22.6719 3.98486
900 1 -1.1104 3.83912 28.2643 6.79324
1078 2 2.2208 13.6367 32.5329 10.9985
982 2 2.2208 -0.236476 38.1282 8.17178
1114 2 2.2208 5.30234 24.0113 -0.232644
1111 2 2.2208 13.5855 24.1286 13.637
772 1 -1.1104 6.73278 25.4243 1.14943
774 1 -1.1104 6.69271 22.5804 1.21569
1118 2 2.2208 5.31926 29.677 -0.232109
777 1 -1.1104 6.68346 28.2441 3.99152
778 2 2.2208 10.8421 23.9795 5.32997
779 2 2.2208 10.9036 29.7411 5.34158
780 1 -1.1104 12.2545 25.4641 1.1379
781 1 -1.1104 12.2648 25.3765 3.87414
782 1 -1.1104 12.2947 22.5369 1.15206
783 1 -1.1104 12.2703 28.2516 1.11676
784 2 2.2208 10.8282 26.8622 2.54552
785 1 -1.1104 12.2091 22.5466 3.79813
786 1 -1.1104 12.1512 28.1989 3.8785
787 1 -1.1104 9.43156 25.3736 1.15878
788 2 2.2208 8.03118 23.9567 2.54094
789 2 2.2208 8.09193 29.7011 2.55473
790 1 -1.1104 9.47306 25.4356 3.91704
791 2 2.2208 8.08854 26.8879 5.34317
792 1 -1.1104 9.47788 22.5941 1.18471
793 1 -1.1104 9.4975 28.2523 1.13962
794 1 -1.1104 9.43625 22.5912 4.06413
795 1 -1.1104 9.51104 28.36 3.90691
929 1 -1.1104 9.37307 22.5808 6.75679
926 1 -1.1104 12.1281 22.5208 6.711
797 2 2.2208 13.7409 29.6181 2.60886
1092 2 2.2208 7.95468 24.0521 13.7964
1126 2 2.2208 10.9282 29.6438 -0.246117
1125 2 2.2208 13.6585 26.8173 -0.260936
1032 1 -1.1104 6.71616 42.2941 12.3624
799 2 2.2208 5.25898 35.2805 5.37311
800 1 -1.1104 1.07271 30.9341 1.16385
801 1 -1.1104 1.10326 36.5837 1.2541
803 1 -1.1104 1.07798 31.1792 3.92295
804 1 -1.1104 1.10176 36.7733 3.97882
806 1 -1.1104 1.04774 33.8906 1.17149
807 2 2.2208 5.34222 32.5736 2.54051
808 2 2.2208 5.20836 38.0854 2.4979
809 1 -1.1104 1.04512 33.9206 4.01024
811 1 -1.1104 3.94251 31.1142 1.06314
812 1 -1.1104 3.92624 36.7312 1.17181
813 2 2.2208 2.46975 35.2473 2.61049
814 1 -1.1104 3.83378 31.1707 3.9103
815 1 -1.1104 3.8871 36.6319 4.00551
816 2 2.2208 2.48724 32.4807 5.30437
817 2 2.2208 2.56372 38.1479 5.33051
818 1 -1.1104 3.85063 33.8097 1.25643
819 1 -1.1104 3.94679 33.8618 3.97293
955 1 -1.1104 3.84532 31.0716 6.81466
953 1 -1.1104 1.11828 33.9622 6.74713
956 1 -1.1104 3.88325 36.606 6.61981
802 1 -1.1104 6.62031 36.7291 1.10185
825 1 -1.1104 6.71261 33.9713 1.13645
805 1 -1.1104 6.64327 36.7795 3.81086
810 1 -1.1104 6.62238 33.9528 3.97367
824 1 -1.1104 6.66182 31.1532 3.92881
954 1 -1.1104 6.69326 33.8173 6.78038
823 1 -1.1104 6.66284 31.1231 1.19136
1063 1 -1.1104 12.2655 42.3254 9.60004
1069 2 2.2208 13.6566 43.6474 5.31501
826 2 2.2208 10.8346 35.2936 5.38773
827 1 -1.1104 12.241 31.0373 1.17798
828 1 -1.1104 12.2898 36.6187 1.21949
829 1 -1.1104 12.2868 31.0416 3.9979
830 1 -1.1104 12.268 36.6821 4.02099
831 1 -1.1104 12.3218 33.8917 1.17576
832 2 2.2208 10.7965 32.4648 2.55423
833 2 2.2208 10.8636 38.0486 2.57727
834 1 -1.1104 12.1315 33.8763 3.92252
835 1 -1.1104 9.50597 31.1349 1.13745
836 1 -1.1104 9.43473 36.6301 1.18891
837 2 2.2208 7.98997 35.3105 2.50702
838 1 -1.1104 9.49327 31.0825 3.98483
839 1 -1.1104 9.51844 36.6122 4.017
840 2 2.2208 8.08001 32.4162 5.36827
841 2 2.2208 8.08257 38.0412 5.28835
842 1 -1.1104 9.40207 33.8025 1.10289
843 1 -1.1104 9.32797 33.9066 3.92497
952 1 -1.1104 6.67752 36.7232 6.79853
1055 1 -1.1104 12.4916 45.1153 12.4258
879 1 -1.1104 12.3372 39.4719 3.98401
888 1 -1.1104 9.444 39.4766 3.93747
987 1 -1.1104 9.47151 36.6987 6.69114
983 1 -1.1104 12.3194 31.1372 6.72213
1052 1 -1.1104 12.2414 45.1235 9.2804
1048 1 -1.1104 9.34221 42.2742 9.57147
869 2 2.2208 -0.347932 43.7604 2.42812
1056 1 -1.1104 12.2696 39.5541 12.3621
870 2 2.2208 -0.430493 46.5546 5.22795
851 1 -1.1104 0.95562 39.5496 1.14561
867 1 -1.1104 3.89207 39.5525 3.81174
845 2 2.2208 5.35194 40.8799 5.29258
846 2 2.2208 5.32635 46.5274 5.34843