LAMMPS data file via write_data, version 29 Oct 2020, timestep = 100048

17730 atoms
3 atom types

-0.3699962019430511 27.709996201942747 xlo xhi
-4.485429679222234 332.56542967922496 ylo yhi
-0.3657033122585685 27.705703312259207 zlo zhi

Masses

1 15.9994
2 232.0381
3 131.293

Atoms # full

1 0 2 2.2208 5.288144020879512 1.1519301439888197 5.168486395087856 0 0 0
2 0 1 -1.1104 1.0820593080827994 -3.2466166190430408 1.1063361977982884 0 0 0
3 0 1 -1.1104 1.0984652857368753 2.4695519604494396 0.8989308007030111 0 0 0
6 0 1 -1.1104 0.9806520103414175 -3.107762461973054 3.9060457832921047 0 0 0
7 0 1 -1.1104 1.0769720331744028 2.4544425185614758 3.6639267391708112 0 0 0
10 0 1 -1.1104 1.111888539312838 -0.4748314078523856 0.896884466893725 0 0 0
12 0 2 2.2208 5.358379572026079 -1.72607718768763 2.452759232129726 0 0 0
13 0 2 2.2208 5.4238537755692064 4.046172925936448 2.410872197289362 0 0 0
14 0 1 -1.1104 1.1270065713415403 -0.38817880881530414 3.755113368711603 0 0 0
16 0 1 -1.1104 4.0355512466347765 -3.2538929380708046 1.1195293167579252 0 0 0
17 0 1 -1.1104 3.9415574211005766 2.419179314341924 1.106351311527554 0 0 0
18 0 2 2.2208 2.497005894738472 0.989113941497941 2.282571689561421 0 0 0
19 0 1 -1.1104 3.854316003260408 -3.0618633358054232 3.8218039056409863 0 0 0
20 0 1 -1.1104 3.933960243447771 2.657309689308271 3.790294893943533 0 0 0
21 0 2 2.2208 2.4340567783477214 -1.7599576835268016 5.103256610442773 0 0 0
23 0 1 -1.1104 3.9334978063604495 -0.39268702616811285 0.8441774630946753 0 0 0
24 0 1 -1.1104 3.8504499121885467 -0.15869676310142747 3.6961554046215412 0 0 0
22 0 2 2.2208 2.608246505856252 3.8207835146125384 5.17199998032949 0 0 0
26 0 2 2.2208 -0.3543311143151601 1.1293899190960954 5.007054545843861 0 0 0
29 0 2 2.2208 5.354720938389599 -4.450028199778842 5.221412414064507 0 0 0
25 0 2 2.2208 -0.3447072353595228 -1.694844923995916 2.2704595531336373 0 0 0
170 0 1 -1.1104 1.0334313075348525 -0.36091657467635757 6.507579041565268 0 0 0
439 0 2 2.2208 2.480702100241077 -4.482257413998411 13.530534390747185 0 0 0
174 0 1 -1.1104 3.8135501016812343 -0.41260788326633085 6.371669905951195 0 0 0
167 0 1 -1.1104 1.1040080825682113 2.5043283737270308 6.506679667014858 0 0 0
166 0 1 -1.1104 1.1706229540648638 -3.1746918000697137 6.6473505410251414 0 0 0
173 0 1 -1.1104 3.801882427844044 2.3978878784783073 6.560034154923784 0 0 0
51 0 2 2.2208 8.143407457964244 -4.420347451001646 2.310830442308749 0 0 0
9 0 1 -1.1104 6.8045456516428136 2.409717587043282 3.8153616124600127 0 0 0
5 0 1 -1.1104 6.560200193714285 2.591712689430838 0.8202883295717109 0 0 0
8 0 1 -1.1104 6.796366545809362 -3.0834534911168228 3.7512407277665747 0 0 0
11 0 1 -1.1104 6.867538910797795 -0.2863391233293605 0.9621461500177856 0 0 0
15 0 1 -1.1104 6.716119041209354 -0.2870744633661537 3.7459862744980543 0 0 0
4 0 1 -1.1104 6.725857936600104 -3.0934448817256572 0.8897296652408483 0 0 0
31 0 2 2.2208 11.125232611554955 1.0180054922510795 5.1820324349943325 0 0 0
32 0 1 -1.1104 12.310758032814253 -3.0514634459878076 0.8667555091478485 0 0 0
33 0 1 -1.1104 12.266614203942666 2.416127366015543 1.0781395655998811 0 0 0
34 0 1 -1.1104 12.382606172038274 -3.1407137073584828 3.681896233607095 0 0 0
35 0 1 -1.1104 12.397890111463589 2.5170434118795475 3.7140116023103773 0 0 0
36 0 1 -1.1104 12.34778845066353 -0.236175103593026 0.9409338874852594 0 0 0
37 0 2 2.2208 10.923826015292224 -1.664220053052388 2.3139254508719596 0 0 0
39 0 1 -1.1104 12.367525206191234 -0.30228969103103603 3.793821285198287 0 0 0
40 0 1 -1.1104 9.581998975411205 -3.1118547658006777 0.8113756469395731 0 0 0
41 0 1 -1.1104 9.449017613370918 2.5214269601958166 1.0078137588544078 0 0 0
42 0 2 2.2208 8.210903617178237 1.0886755936238774 2.298678326102531 0 0 0
43 0 1 -1.1104 9.547590539288217 -3.0640628494724957 3.841781602999899 0 0 0
44 0 1 -1.1104 9.653673374605539 2.5753032479055302 3.869409529362089 0 0 0
45 0 2 2.2208 8.119471924786549 -1.6171009472946563 5.151725271933441 0 0 0
47 0 1 -1.1104 9.55281369993473 -0.36291443488123926 1.0126187056781244 0 0 0
48 0 1 -1.1104 9.480182343353661 -0.1826220051073689 3.7777235964569997 0 0 0
46 0 2 2.2208 8.156948383973273 3.837457998381718 5.1770530380423185 0 0 0
38 0 2 2.2208 10.987679757196526 3.9672106260321742 2.4404485570759227 0 0 0
355 0 2 2.2208 2.514758968448715 6.577439127091353 13.510073440353434 0 0 0
171 0 1 -1.1104 6.708442849000029 -0.2896893289569634 6.54873854783676 0 0 0
208 0 1 -1.1104 9.593846669282565 -2.9988937552557173 6.53355495067836 0 0 0
209 0 1 -1.1104 9.71140285691694 2.4273459958272996 6.707219142756963 0 0 0
168 0 1 -1.1104 6.811395305538477 -3.044903518940291 6.352725242381588 0 0 0
210 0 1 -1.1104 9.53849175475908 -0.34231466456938 6.428679456417322 0 0 0
311 0 2 2.2208 -0.29290623830895185 20.633333406829216 7.948090434700224 0 0 0
81 0 2 2.2208 -0.2015105891149545 6.601401315658932 5.260604301439442 0 0 0
54 0 2 2.2208 5.531167094437414 6.6740704630287775 5.1979902383339684 0 0 0
55 0 2 2.2208 5.567496742661715 12.264839871615214 5.298361398941773 0 0 0
56 0 1 -1.1104 1.1647333355603584 8.228245231596624 1.14092980310695 0 0 0
58 0 1 -1.1104 1.1448455811781035 8.011310735232362 3.934733141204794 0 0 0
60 0 1 -1.1104 1.0851700207061201 5.351244394646345 1.0557059206095092 0 0 0
61 0 1 -1.1104 1.2363744576669358 10.815741952219005 1.044942743591438 0 0 0
66 0 2 2.2208 5.421790718885996 9.525489201312293 2.483271727137913 0 0 0
67 0 1 -1.1104 1.1673764414740182 5.281580216161939 3.9553332962388494 0 0 0
68 0 1 -1.1104 1.1571890112572725 10.844017917841777 3.9075598119094765 0 0 0
71 0 1 -1.1104 3.9789507247828 8.114761300266748 0.932672987454515 0 0 0
72 0 2 2.2208 2.4277585930922596 6.719011629970616 2.4896593547860753 0 0 0
73 0 2 2.2208 2.713208954535292 12.435999003044836 2.5211237755282507 0 0 0
74 0 1 -1.1104 3.9150357092574657 8.124314280389044 3.778587287126479 0 0 0
75 0 2 2.2208 2.577572725781358 9.508477576822777 5.181739972866291 0 0 0
76 0 1 -1.1104 3.9230879005622072 5.2287910604648005 1.040360347159327 0 0 0
77 0 1 -1.1104 3.9866997060412146 10.915947722919874 1.1152475723642687 0 0 0
79 0 1 -1.1104 4.052025960713834 5.461889870111098 3.7498951447116493 0 0 0
80 0 1 -1.1104 4.027744224808842 10.958890484093295 3.8585186053897402 0 0 0
70 0 1 -1.1104 6.997337856297596 10.907173477966623 3.8308925435913266 0 0 0
59 0 1 -1.1104 6.857008281267113 8.127744192928558 3.7915786737108705 0 0 0
83 0 2 2.2208 -0.20480908510498863 12.234353587253658 5.2405184825263476 0 0 0
234 0 1 -1.1104 1.1435093081557675 8.055951965693147 6.498300441160534 0 0 0
236 0 1 -1.1104 1.1563784587756873 5.263855389219755 6.711909025333875 0 0 0
78 0 1 -1.1104 4.138035795228105 10.890694818167646 6.676193461065887 0 0 0
62 0 1 -1.1104 1.1070481850346239 10.852874736003315 6.68239198739447 0 0 0
82 0 2 2.2208 -0.1808398935452294 9.467616499892618 2.4227534173061334 0 0 0
348 0 2 2.2208 2.573859383761072 1.0010864710806429 13.64562140206247 0 0 0
320 0 2 2.2208 8.167032879231124 17.886715875095003 7.9900052084723425 0 0 0
306 0 1 -1.1104 6.694591814553434 16.46884109560046 12.264947867327427 0 0 0
329 0 1 -1.1104 12.508279999362593 19.38128566270394 12.359197158085326 0 0 0
237 0 1 -1.1104 6.808296935355133 5.234876334633818 6.564853457600026 0 0 0
63 0 1 -1.1104 6.780934887079463 5.401095834874945 1.1676832105793709 0 0 0
69 0 1 -1.1104 6.8729763658676575 5.198375971304475 3.8623487864012396 0 0 0
235 0 1 -1.1104 6.894582511024204 7.957870939981822 6.665574857398408 0 0 0
64 0 1 -1.1104 6.809560651931388 10.867873592829476 1.212731899182821 0 0 0
57 0 1 -1.1104 6.872654758512817 8.115816844602719 1.0446626703210347 0 0 0
84 0 2 2.2208 10.97218047509026 6.653475360550703 5.39349922189045 0 0 0
85 0 2 2.2208 11.043662176435317 12.272453318849921 5.24732109476355 0 0 0
86 0 1 -1.1104 12.33655155865193 8.090865759456277 1.0290911580516462 0 0 0
87 0 1 -1.1104 12.420386176375105 8.216012748083429 3.8547758084525645 0 0 0
88 0 1 -1.1104 12.36009318904157 5.225102769285602 1.119436815452777 0 0 0
89 0 1 -1.1104 12.351978043685387 10.925535458424683 0.8488546718800936 0 0 0
91 0 2 2.2208 10.99403858753066 9.521461600575531 2.5218337455486965 0 0 0
92 0 1 -1.1104 12.500888734205894 5.3507064519412335 3.9890311654068698 0 0 0
93 0 1 -1.1104 12.535278048600048 10.975078174452605 3.798494117979072 0 0 0
94 0 1 -1.1104 9.764181807102895 8.020506557587288 1.0494864991016042 0 0 0
95 0 2 2.2208 8.284482671964676 6.720995349360414 2.499648399232114 0 0 0
96 0 2 2.2208 8.255989845590927 12.282384832177135 2.521695262633691 0 0 0
97 0 1 -1.1104 9.719587188215533 8.05023453785395 4.023501889663803 0 0 0
98 0 2 2.2208 8.223969320306558 9.35732802632271 5.264292299275856 0 0 0
99 0 1 -1.1104 9.593828498491272 5.366995629045718 1.0429923314286642 0 0 0
100 0 1 -1.1104 9.542949418918889 10.700901042352669 1.143907732278117 0 0 0
102 0 1 -1.1104 9.591313612117652 5.3530442192248655 3.880232844249997 0 0 0
103 0 1 -1.1104 9.681438083883275 10.968137961298256 3.973753311821588 0 0 0
266 0 1 -1.1104 12.56211784743098 5.191926193761088 6.714598928962161 0 0 0
90 0 1 -1.1104 12.290621616189625 10.851042485593833 6.649928519144644 0 0 0
265 0 1 -1.1104 12.411798242178445 8.067009638225647 6.6558142541805525 0 0 0
321 0 1 -1.1104 9.589660884065701 19.565433349990307 12.307655037635348 0 0 0
315 0 1 -1.1104 9.41841842561645 16.682390833764604 12.24534515989541 0 0 0
137 0 2 2.2208 -0.31009476777334066 17.958759061034073 5.246270093912667 0 0 0
136 0 2 2.2208 -0.1479026807460441 20.632729620862005 2.367750844813341 0 0 0
106 0 2 2.2208 5.362289929574376 17.909709275652556 5.232500452599873 0 0 0
107 0 1 -1.1104 1.2871966802375743 13.575051850306693 0.976686205063453 0 0 0
109 0 1 -1.1104 1.1844766334084214 19.3998591455268 0.9567142372739781 0 0 0
113 0 1 -1.1104 1.210866610162139 13.733740202770594 3.886264383035204 0 0 0
114 0 1 -1.1104 1.1629347666063348 19.27177672698518 3.6975756153580064 0 0 0
116 0 1 -1.1104 1.244973174928505 16.466026141445063 0.9517468477951847 0 0 0
119 0 2 2.2208 5.479583569210522 15.178489428912036 2.424933466916494 0 0 0
120 0 2 2.2208 5.336674217860682 20.801061469347164 2.4390317708389997 0 0 0
121 0 1 -1.1104 1.300662460789599 16.526485620188772 3.7349591988154898 0 0 0
123 0 1 -1.1104 3.9923476032020995 13.743914466588105 1.052333047643248 0 0 0
125 0 1 -1.1104 3.9499088671565654 19.08090508132973 1.0269590098798915 0 0 0
127 0 2 2.2208 2.530735681791888 17.922060678553525 2.331126066215736 0 0 0
128 0 1 -1.1104 4.066322982626037 13.799418846592056 3.8762046371742453 0 0 0
129 0 1 -1.1104 3.903019346618463 19.47971882605203 3.8916533089513927 0 0 0
130 0 2 2.2208 2.6661073519112986 15.086086866529067 5.3046536496501435 0 0 0
131 0 2 2.2208 2.6230076003414835 20.700092697999676 5.222892338787851 0 0 0
132 0 1 -1.1104 4.063884658610122 16.37079494663577 1.0204861771184974 0 0 0
134 0 1 -1.1104 4.021959395489423 16.535713709005986 3.9198362793325887 0 0 0
117 0 1 -1.1104 1.1701740837814298 16.526031365818458 6.743173188609132 0 0 0
108 0 1 -1.1104 1.2000131372880263 13.600871373570893 6.591238602819424 0 0 0
302 0 1 -1.1104 1.1744043274144789 19.355378852458145 6.5985212815891865 0 0 0
133 0 1 -1.1104 4.039394970650743 16.438309053887686 6.76274047184002 0 0 0
297 0 1 -1.1104 6.8145656660160245 13.69071370201507 12.30932570370476 0 0 0
143 0 1 -1.1104 12.512078492043807 13.687120899479838 6.658739764715442 0 0 0
112 0 1 -1.1104 6.833563784931854 19.19490089621408 6.608283496476159 0 0 0
110 0 1 -1.1104 6.7768863353900075 13.579797075932438 1.0949131364187492 0 0 0
140 0 1 -1.1104 6.8888997947700705 16.472850206288488 0.8689071976575184 0 0 0
115 0 1 -1.1104 6.75613324769381 13.665653928809313 3.9023110172358018 0 0 0
122 0 1 -1.1104 6.8074812643916385 16.55351017665343 3.675511328354975 0 0 0
139 0 1 -1.1104 6.619279032231539 19.41007959951741 3.8173901393775473 0 0 0
138 0 1 -1.1104 6.691510935795395 19.285077471011306 0.8669066741945605 0 0 0
141 0 2 2.2208 10.90334957750018 17.951184877933255 5.279370051927251 0 0 0
142 0 1 -1.1104 12.263447674616511 13.749095851559158 0.9374635141456287 0 0 0
144 0 1 -1.1104 12.414320583904686 19.384716113671086 1.0250930267518314 0 0 0
146 0 1 -1.1104 12.559387109008279 13.784682091333845 3.7815319231974702 0 0 0
147 0 1 -1.1104 12.299262827077062 19.25477591938661 3.880327469868895 0 0 0
148 0 1 -1.1104 12.334549811872943 16.399391150278287 1.037996768690361 0 0 0
150 0 2 2.2208 11.066626054722821 15.037096065037916 2.4928894074339825 0 0 0
151 0 2 2.2208 10.881740335459888 20.813776432289945 2.278485332595684 0 0 0
152 0 1 -1.1104 12.327066416685069 16.513754950149707 3.8256531343288485 0 0 0
153 0 1 -1.1104 9.666978290762 13.587016231592395 1.1103045727623932 0 0 0
155 0 1 -1.1104 9.53863748725082 19.37184932902957 1.0793110552499778 0 0 0
157 0 2 2.2208 8.189621371084781 17.843562354851155 2.457012749539629 0 0 0
158 0 1 -1.1104 9.561355336589553 13.66354335452051 3.7879083220269965 0 0 0
159 0 1 -1.1104 9.40135418305524 19.210807231141047 3.875633359822659 0 0 0
160 0 2 2.2208 8.274309246803817 15.07376840483511 5.3230157110923235 0 0 0
161 0 2 2.2208 8.06560788582737 20.683420951984086 5.0795523283731345 0 0 0
162 0 1 -1.1104 9.577649012388747 16.478358946840622 1.0310172184398636 0 0 0
164 0 1 -1.1104 9.447388240548896 16.36800329962431 3.946624591552126 0 0 0
145 0 1 -1.1104 12.446722630055078 19.332670669273416 6.784484425098102 0 0 0
154 0 1 -1.1104 9.672514387484432 13.693366487267513 6.631607499678477 0 0 0
156 0 1 -1.1104 9.615269965551047 19.294132112384794 6.67482441546555 0 0 0
118 0 1 -1.1104 6.6443192541220455 16.389771643059788 6.405103699741427 0 0 0
363 0 2 2.2208 2.5774043028008293 17.977101512454922 13.617756186754555 0 0 0
324 0 2 2.2208 11.009576264277046 20.59867218190592 8.03716523531542 0 0 0
172 0 1 -1.1104 3.9566289391201264 -3.211087762539438 6.567294749382963 0 0 0
135 0 2 2.2208 -0.12745946696350444 15.111001566949229 2.3396897789457616 0 0 0
199 0 2 2.2208 -0.2919859996186874 3.7623665271776874 7.953177622319723 0 0 0
201 0 2 2.2208 -0.36030145877334036 1.051476696335823 10.798436900938986 0 0 0
361 0 2 2.2208 8.138808989190839 12.214621599432828 13.564235315023499 0 0 0
175 0 2 2.2208 5.249255086485796 1.0516744725314364 10.836434229092237 0 0 0
176 0 1 -1.1104 0.9260053019181427 -3.1867959196673064 12.212650779097716 0 0 0
177 0 1 -1.1104 1.1961974656882932 2.4785061238431387 12.215170954484758 0 0 0
180 0 1 -1.1104 1.1633746806352057 -3.2489235643012 9.439506319463511 0 0 0
181 0 1 -1.1104 1.03558477639708 2.2972025148227577 9.402665619878864 0 0 0
184 0 1 -1.1104 1.1651947322805336 -0.37968760307880706 12.075907332420277 0 0 0
186 0 2 2.2208 5.301549106800388 -1.7082384369322563 7.837315940402817 0 0 0
187 0 2 2.2208 5.468079249110783 3.8736574779673796 7.943767722244325 0 0 0
188 0 1 -1.1104 1.064806593080128 -0.42527380690196637 9.262515211733943 0 0 0
190 0 1 -1.1104 3.808912702339749 -3.074219120673833 12.140785485625118 0 0 0
191 0 1 -1.1104 3.8167777638048697 2.398852100774007 12.201726512015782 0 0 0
192 0 2 2.2208 2.4027195565805757 0.9897615360164607 7.837860753342117 0 0 0
193 0 1 -1.1104 3.763865370236543 -3.2430294904018555 9.296911276853454 0 0 0
194 0 1 -1.1104 3.791050553545052 2.419988233707687 9.515741684449802 0 0 0
195 0 2 2.2208 2.4936182898733352 -1.7190035157449333 10.715491858291166 0 0 0
196 0 2 2.2208 2.5158663529361687 3.7526219356344623 10.695489811600236 0 0 0
197 0 1 -1.1104 3.9648158233719832 -0.2898124987621225 12.178225278358394 0 0 0
198 0 1 -1.1104 3.919530177186865 -0.4061685412932422 9.21627422138191 0 0 0
27 0 2 2.2208 -0.22184658904444787 3.8622328677446993 2.3559945141150274 0 0 0
232 0 2 2.2208 10.998082603834169 -4.47831368426057 10.780213125763952 0 0 0
343 0 2 2.2208 -0.18548356153482942 9.447935753475052 8.089225609582481 0 0 0
288 0 1 -1.1104 6.7251121667190645 19.264715832173152 9.5482993860786 0 0 0
312 0 2 2.2208 -0.32710860459129537 17.83589093807683 10.759255041766425 0 0 0
169 0 1 -1.1104 6.719321636041961 2.366061104986922 6.568802721351247 0 0 0
290 0 1 -1.1104 6.866159553855238 13.639051759198328 9.498062610529594 0 0 0
344 0 2 2.2208 -0.19728718409579984 6.597273197895132 10.755688038235295 0 0 0
178 0 1 -1.1104 6.718931374583279 -3.0669028519968182 12.2731786636537 0 0 0
182 0 1 -1.1104 6.582932338348643 -2.9321061821762164 9.2774205742406 0 0 0
205 0 1 -1.1104 12.447537788045178 -3.1618236338910735 6.590751112852035 0 0 0
207 0 1 -1.1104 12.35359505082872 -0.34482864783511413 6.571232978475743 0 0 0
206 0 1 -1.1104 12.480036629888572 2.436910859743621 6.506236834295312 0 0 0
185 0 1 -1.1104 6.730134160214102 -0.3355055359848174 12.070472942521427 0 0 0
179 0 1 -1.1104 6.5456734970964865 2.5778266539647605 12.127559118955471 0 0 0
189 0 1 -1.1104 6.724771791458764 -0.3243692340532113 9.3852206441877 0 0 0
183 0 1 -1.1104 6.6966314655625645 2.3869606608353484 9.313640935714615 0 0 0
211 0 2 2.2208 10.97362318986593 1.0435928027662968 10.735873956045968 0 0 0
212 0 1 -1.1104 12.256229253621742 -3.0744149340924993 12.244100572040358 0 0 0
213 0 1 -1.1104 12.409037739626507 2.536780602144172 12.222196291094912 0 0 0
214 0 1 -1.1104 12.396421150852742 -3.1397782403250187 9.393261494751409 0 0 0
215 0 1 -1.1104 12.48819572852956 2.2907438495349464 9.438800467761892 0 0 0
216 0 1 -1.1104 12.412463228622117 -0.3587261052998252 12.232297475146353 0 0 0
217 0 2 2.2208 10.95372389511521 -1.7350842704981484 7.944421096870603 0 0 0
218 0 2 2.2208 11.129857893269005 3.843005483027748 8.000129864652783 0 0 0
219 0 1 -1.1104 12.495404538088927 -0.5157887035430359 9.399055275041396 0 0 0
220 0 1 -1.1104 9.405466962252648 -3.051893304189099 12.09446237066115 0 0 0
221 0 1 -1.1104 9.451978605726934 2.4820502304611094 12.266942979467304 0 0 0
222 0 2 2.2208 8.154042298860649 1.0400302870323523 7.936712218005431 0 0 0
223 0 1 -1.1104 9.546084985997444 -3.0892694775959137 9.279582797695253 0 0 0
224 0 1 -1.1104 9.627233066264624 2.5146154588959773 9.6021757065827 0 0 0
225 0 2 2.2208 8.205641663271438 -1.7683584414150324 10.709690623070177 0 0 0
226 0 2 2.2208 8.123725487745753 3.8970193726399094 10.945536129387683 0 0 0
227 0 1 -1.1104 9.590447599439639 -0.3330628256646285 12.13266988754254 0 0 0
228 0 1 -1.1104 9.650669537280471 -0.24968347774117344 9.253452917318624 0 0 0
327 0 1 -1.1104 12.490410372713741 19.268850048720687 9.507074798433843 0 0 0
342 0 2 2.2208 -0.18508458801574879 12.257929682704454 10.787682649139914 0 0 0
238 0 1 -1.1104 4.009425544253114 8.084931872345262 6.535343321974375 0 0 0
330 0 1 -1.1104 12.451414278759088 13.566566476648589 12.17091153133333 0 0 0
239 0 1 -1.1104 4.080348324835073 5.243543693336928 6.481268601950814 0 0 0
296 0 1 -1.1104 6.901598865721053 19.378209365894996 12.338710467359654 0 0 0
240 0 2 2.2208 5.430716723481641 6.631340786343754 10.956565740061961 0 0 0
241 0 2 2.2208 5.2880468476711115 12.260914067326794 10.879293177426772 0 0 0
242 0 1 -1.1104 1.062988696091008 8.056572323439017 12.15923709939772 0 0 0
244 0 1 -1.1104 1.3209290058585401 7.896072348102816 9.549605828227946 0 0 0
246 0 1 -1.1104 1.1120225323327795 5.186053596253401 12.088181822665986 0 0 0
247 0 1 -1.1104 1.3599900739570374 11.008328546275713 12.21947255072106 0 0 0
250 0 2 2.2208 5.505523431474503 9.390074880361045 8.03742747618603 0 0 0
251 0 1 -1.1104 1.252446133133703 4.974803162464506 9.32746909811168 0 0 0
252 0 1 -1.1104 0.9823582110130143 10.75184369148586 9.499301082013586 0 0 0
255 0 1 -1.1104 3.962581160862943 7.986706863916658 12.29999663399912 0 0 0
256 0 2 2.2208 2.5913158109068206 6.68346065682967 7.8632917604386465 0 0 0
257 0 2 2.2208 2.6297605596480214 12.218870263505321 8.137135606219642 0 0 0
258 0 1 -1.1104 4.04850510707116 7.979288917296619 9.499047419210294 0 0 0
259 0 2 2.2208 2.567323906991077 9.339419267772277 10.916405421257103 0 0 0
260 0 1 -1.1104 3.850736102630661 5.265623743134743 12.055885657326922 0 0 0
261 0 1 -1.1104 4.0274877168760606 10.759112709706589 12.303118336118246 0 0 0
262 0 1 -1.1104 3.789093145622774 5.244980852312265 9.244396317842911 0 0 0
263 0 1 -1.1104 3.8506618749180563 10.743964635074482 9.623566123759293 0 0 0
317 0 2 2.2208 8.208929592501363 15.162337334504778 10.902459848502467 0 0 0
316 0 2 2.2208 8.173539081086231 20.778015210054026 10.87474520466959 0 0 0
388 0 2 2.2208 2.548369572732959 9.553730632588568 -0.32513465825136545 0 0 0
65 0 1 -1.1104 6.947337213749089 10.82783749097905 6.552619652467269 0 0 0
101 0 1 -1.1104 9.528742723326381 10.887151238304144 6.858256521945092 0 0 0
267 0 1 -1.1104 9.62264392237721 8.069616779231072 6.76715747735541 0 0 0
243 0 1 -1.1104 6.875014086302346 8.188637334537427 12.273584452045872 0 0 0
254 0 1 -1.1104 6.730993986035027 10.907206554759838 9.295535104791286 0 0 0
269 0 1 -1.1104 9.656882916731913 5.147152698506277 6.616884163358807 0 0 0
249 0 1 -1.1104 6.68213236042423 10.817887917045104 12.128818271335614 0 0 0
248 0 1 -1.1104 6.743044013342127 5.360601317628445 12.341953862470483 0 0 0
253 0 1 -1.1104 6.82350381393286 5.232592067835698 9.465491003380905 0 0 0
245 0 1 -1.1104 6.901812365651826 8.09959167157414 9.563744719784602 0 0 0
280 0 1 -1.1104 12.41012864167364 5.276448717282124 12.216048017528143 0 0 0
279 0 1 -1.1104 12.608931575443167 8.015454991413337 9.474584437730128 0 0 0
278 0 1 -1.1104 12.528438351774218 8.19638641459036 12.437497554830747 0 0 0
277 0 2 2.2208 11.082959095827674 12.375055790919703 10.72702575970517 0 0 0
276 0 2 2.2208 11.142221419249017 6.723138997226136 10.842658294178653 0 0 0
284 0 1 -1.1104 12.509294820942104 10.85925777032235 9.438170846859107 0 0 0
275 0 2 2.2208 8.281400129053077 6.577866456780047 8.029651235463886 0 0 0
283 0 1 -1.1104 12.550980306735623 5.229997513206787 9.378807909160402 0 0 0
281 0 1 -1.1104 12.573458290001884 10.881276766864403 12.249597069085802 0 0 0
285 0 1 -1.1104 9.742681821429182 8.203390147314126 12.158598107533274 0 0 0
282 0 2 2.2208 11.025982922915967 9.551501840809154 8.107590827718536 0 0 0
264 0 1 -1.1104 9.643560111288656 10.97898919737207 9.61470464463865 0 0 0
268 0 1 -1.1104 9.634498770326136 5.383806696871594 9.464386178189264 0 0 0
270 0 1 -1.1104 9.592843793922235 10.947335418758385 12.29180096308026 0 0 0
271 0 1 -1.1104 9.558449780129095 5.421786899487876 12.130887314640777 0 0 0
272 0 2 2.2208 8.349201505240558 9.453782998397577 10.829026836188747 0 0 0
273 0 1 -1.1104 9.778235457333112 8.09521208507436 9.453637649112776 0 0 0
274 0 2 2.2208 8.22774878005804 12.269970087812156 8.054429295876941 0 0 0
353 0 2 2.2208 10.86726025847366 -1.7371863891796708 13.524817587307753 0 0 0
323 0 1 -1.1104 12.6026851217897 16.53466290847804 9.421008162623085 0 0 0
328 0 1 -1.1104 12.424832083219611 13.689800163058756 9.327143512289583 0 0 0
318 0 1 -1.1104 9.46418468386578 19.390297391285046 9.474019619718932 0 0 0
126 0 1 -1.1104 3.947733285510446 19.192628370196214 6.64989638199393 0 0 0
313 0 2 2.2208 -0.279853049188228 15.089800193123237 7.934411631518051 0 0 0
124 0 1 -1.1104 4.107925027831024 13.71210322201634 6.734490545963593 0 0 0
294 0 1 -1.1104 1.2083797836422159 13.674712811246577 9.499261637070779 0 0 0
295 0 2 2.2208 5.39184847116817 15.076106845811227 8.06426499117533 0 0 0
310 0 2 2.2208 2.667849836836002 15.230687154643084 10.935533050878467 0 0 0
309 0 2 2.2208 2.4501842048444766 20.758350326867685 10.843509893652726 0 0 0
308 0 1 -1.1104 4.089828790862526 16.539930447718028 12.341949939868735 0 0 0
307 0 1 -1.1104 1.1386024100703611 16.491298531508097 12.295421760783565 0 0 0
291 0 1 -1.1104 1.08971896081197 19.26794265631417 9.274961772216926 0 0 0
286 0 1 -1.1104 4.029254251579108 19.43551986087591 12.150190485984023 0 0 0
305 0 1 -1.1104 4.00642309470215 13.571119045181204 9.605956748102601 0 0 0
304 0 1 -1.1104 4.141996713036686 16.45435875520349 9.53342157469443 0 0 0
292 0 1 -1.1104 1.1101640699385806 16.43634087727615 9.372561932298371 0 0 0
303 0 2 2.2208 2.53373227390872 17.93073570011105 8.045839659247909 0 0 0
301 0 1 -1.1104 3.865936885507791 19.34850942001093 9.513486224471622 0 0 0
300 0 2 2.2208 5.422478636931534 17.991112431576394 10.927867397353364 0 0 0
293 0 2 2.2208 5.272725987407956 20.693232558057435 7.975803374267152 0 0 0
299 0 1 -1.1104 1.284737374928425 13.77397168703531 12.212451492226407 0 0 0
298 0 1 -1.1104 1.1247606849704987 19.454453655722446 12.335784532171058 0 0 0
287 0 1 -1.1104 3.941899661657726 13.605300797609429 12.295216626748003 0 0 0
359 0 2 2.2208 8.304941392419806 6.860038488106267 13.521781150456004 0 0 0
289 0 1 -1.1104 6.999959208936363 16.55541031943896 9.338350339770288 0 0 0
346 0 2 2.2208 -0.28009701971647516 -1.7086039429979234 13.638274207247848 0 0 0
331 0 2 2.2208 11.101377767211913 18.077331629263448 10.910138843151353 0 0 0
322 0 1 -1.1104 9.73825393662041 13.896968418607022 12.13551604212265 0 0 0
319 0 1 -1.1104 9.690653479666205 13.776682338101292 9.320092307949334 0 0 0
314 0 1 -1.1104 9.94076404539471 16.663876134447072 9.445245304616867 0 0 0
149 0 1 -1.1104 12.353127411508867 16.468444152142755 6.552851377362995 0 0 0
163 0 1 -1.1104 9.535057131172014 16.57657970916013 6.72360974294384 0 0 0
111 0 1 -1.1104 6.916792508287784 13.713724814060546 6.698744775431694 0 0 0
325 0 2 2.2208 11.058998539091242 15.106739116798336 8.028571121473934 0 0 0
326 0 1 -1.1104 12.22816936724847 16.542304542976552 12.256705790913381 0 0 0
389 0 2 2.2208 5.422672030784664 12.291689273202143 -0.2582562280142211 0 0 0
347 0 2 2.2208 5.32576925328138 -1.6555550380425177 13.609447521327072 0 0 0
354 0 2 2.2208 10.943311472736434 3.8830598258208058 13.52999954211294 0 0 0
392 0 2 2.2208 11.026853049245174 6.6321933052830895 -0.3235354046623873 0 0 0
351 0 2 2.2208 -0.19014138694423108 15.087326826047553 13.597103004027051 0 0 0
377 0 2 2.2208 8.242163283722746 15.003012713424159 -0.30193763196102097 0 0 0
378 0 2 2.2208 10.947999245057554 17.869573386793284 -0.2364920673788724 0 0 0
373 0 2 2.2208 5.399015818393805 1.0978014600339747 -0.353393185606258 0 0 0
384 0 2 2.2208 8.076046436219599 3.9119018911256136 -0.2501393804880685 0 0 0
357 0 2 2.2208 2.6584463409580708 12.272856718583471 13.631379563496788 0 0 0
369 0 2 2.2208 10.913315427594666 15.262469255077088 13.589644963908768 0 0 0
365 0 2 2.2208 5.478226894520763 15.0530163453795 13.573391611633797 0 0 0
352 0 2 2.2208 8.118697735977813 1.0339525322190826 13.527357283236459 0 0 0
349 0 2 2.2208 5.357689017246986 3.8770424319325585 13.566359319369743 0 0 0
391 0 2 2.2208 -0.2895577971246083 6.6220091482750245 -0.2902105670872892 0 0 0
400 0 2 2.2208 5.353297394838456 1.1216910097405504 16.447399480700668 0 0 0
401 0 1 -1.1104 1.101631839672657 -3.0097261964918443 17.738400019656368 0 0 0
402 0 1 -1.1104 1.1215601225457401 2.5690097450654874 18.018078979346782 0 0 0
405 0 1 -1.1104 1.0472649781636942 -3.132697781333519 15.064992185704485 0 0 0
407 0 1 -1.1104 1.1414444246049362 2.4392969063457097 15.170165844727622 0 0 0
413 0 1 -1.1104 1.2363006649886112 -0.30126358605619924 17.832569021101683 0 0 0
415 0 2 2.2208 5.313900573467331 -1.672171602276067 19.292583675800834 0 0 0
416 0 2 2.2208 5.255200131171644 3.9922448022413475 19.286880698647987 0 0 0
417 0 1 -1.1104 1.1837446469282646 -0.4036424983097655 14.947595064479053 0 0 0
421 0 1 -1.1104 3.944895870483776 -3.0419153264093426 17.8620607336802 0 0 0
422 0 1 -1.1104 3.8767864298094694 2.5603849141843096 17.71971573026393 0 0 0
423 0 2 2.2208 2.5744002243029223 1.176224185964529 19.145251030211227 0 0 0
424 0 1 -1.1104 3.906374815274527 -3.1341093606748105 15.12340933507977 0 0 0
426 0 1 -1.1104 3.8556961829280367 2.409406730353709 14.946298733921202 0 0 0
428 0 2 2.2208 2.563924749097422 -1.7506376289056038 16.441869066633913 0 0 0
429 0 2 2.2208 2.5240693631768414 3.9609154797047403 16.39920696225792 0 0 0
430 0 1 -1.1104 3.894507885017353 -0.2124730979423664 17.831799395895878 0 0 0
431 0 1 -1.1104 4.0124453402899025 -0.2554612243493206 14.945188829888673 0 0 0
406 0 1 -1.1104 1.0192083440702508 -3.050249965734571 20.59791783563486 0 0 0
399 0 2 2.2208 -0.3073680643537602 17.77203800458206 27.64072330406991 0 0 -1
425 0 1 -1.1104 4.064524380627426 -3.0930902526415958 20.743611733764617 0 0 0
427 0 1 -1.1104 3.857925520054528 2.5138618868839253 20.658907620699416 0 0 0
574 0 2 2.2208 -0.25094589563999303 3.9168967145696776 19.317685837071714 0 0 0
435 0 2 2.2208 2.5881080698000414 -4.403452269234203 19.344131108272336 0 0 0
697 0 2 2.2208 -0.23760112462353275 12.282492411000602 22.066416258102716 0 0 0
418 0 1 -1.1104 1.1218004590062618 -0.2909579325777628 20.676930719215015 0 0 0
411 0 1 -1.1104 6.660193293108844 2.38790844046527 14.950078788888757 0 0 0
412 0 1 -1.1104 6.597280789495224 2.5322725998876945 20.574639965249872 0 0 0
404 0 1 -1.1104 6.7255758909307914 2.511455958015517 17.864069199199477 0 0 0
410 0 1 -1.1104 6.8065632834698295 -3.1137578774649324 20.564832208713604 0 0 0
419 0 1 -1.1104 6.808930728353072 -0.20096449437159003 15.03325821834922 0 0 0
409 0 1 -1.1104 6.770281106124489 -2.997237151014847 15.035413794712424 0 0 0
414 0 1 -1.1104 6.740834870034538 -0.3251965349754019 18.03516554703802 0 0 0
403 0 1 -1.1104 6.582261624494598 -3.1350569414250478 17.84626564491643 0 0 0
443 0 2 2.2208 10.939516818843751 1.064473752012501 16.437055803933738 0 0 0
444 0 1 -1.1104 12.287265923177364 -3.1620309090018535 17.732469196936936 0 0 0
445 0 1 -1.1104 12.294262096463397 2.4553266706863988 17.78228433333517 0 0 0
446 0 1 -1.1104 12.327077358063388 -3.1364311165510332 14.953249315340026 0 0 0
448 0 1 -1.1104 12.391570087447993 2.627654885684361 14.927401850145426 0 0 0
450 0 1 -1.1104 12.078261093903667 -0.29355547121609216 17.715552769793472 0 0 0
451 0 2 2.2208 10.910343557927273 -1.839238619111513 19.2285268568394 0 0 0
452 0 2 2.2208 11.003791263309953 3.8486545802964964 19.104929787754806 0 0 0
453 0 1 -1.1104 12.338247804004233 -0.2792176120739646 14.931534661530316 0 0 0