ITEM: TIMESTEP
100000
ITEM: NUMBER OF ATOMS
17700
ITEM: BOX BOUNDS pp pp pp
-3.7063876763492998e-01 2.7710638767635402e+01
-4.4807275986503905e+00 3.3256072759865515e+02
-3.7205179436649449e-01 2.7712051794365706e+01
ITEM: ATOMS id type q x y z
1 2 2.2208 5.11493 0.997817 5.35202
2 1 -1.1104 1.04869 -3.11998 1.17279
3 1 -1.1104 0.984849 2.53585 1.03961
6 1 -1.1104 0.885326 -3.08011 3.93035
7 1 -1.1104 0.91578 2.44831 3.82255
10 1 -1.1104 0.920276 -0.346025 0.868667
12 2 2.2208 5.24143 -1.64366 2.33052
13 2 2.2208 5.20591 3.93098 2.51773
14 1 -1.1104 0.990803 -0.238519 3.72941
16 1 -1.1104 3.80868 -3.09604 1.10443
17 1 -1.1104 3.81974 2.47257 1.08569
18 2 2.2208 2.33308 1.25212 2.3767
19 1 -1.1104 3.715 -3.03486 3.76688
20 1 -1.1104 3.79573 2.65862 3.95962
21 2 2.2208 2.25868 -1.71538 5.09683
22 2 2.2208 2.3732 3.83859 5.40262
23 1 -1.1104 3.69769 -0.265147 0.973768
24 1 -1.1104 3.71455 -0.194749 3.85108
8350 2 2.2208 13.705 -4.57766 8.1171
168 1 -1.1104 1.00151 -0.363104 6.5409
201 2 2.2208 5.19864 -4.64913 10.7481
9026 2 2.2208 -0.522023 3.90428 2.43386
9 1 -1.1104 6.62665 2.50278 3.74979
541 2 2.2208 2.48166 -1.67075 -0.421274
164 1 -1.1104 0.810578 -3.10634 6.62881
317 2 2.2208 5.25709 1.25325 -0.451806
11 1 -1.1104 6.58843 -0.217032 0.887305
4 1 -1.1104 6.64347 -2.99813 0.980819
15 1 -1.1104 6.54255 -0.334153 3.76121
5 1 -1.1104 6.66064 2.6187 0.997263
8 1 -1.1104 6.57299 -3.0161 3.81981
31 2 2.2208 10.7782 1.06551 5.1048
32 1 -1.1104 12.1608 -3.1457 1.01954
33 1 -1.1104 12.2815 2.57595 1.02418
34 1 -1.1104 12.2182 -3.20579 4.01398
35 1 -1.1104 12.1926 2.58946 3.76287
36 1 -1.1104 12.1136 -0.339911 1.09083
37 2 2.2208 10.7494 -1.77739 2.31766
38 2 2.2208 10.8826 3.97976 2.40505
39 1 -1.1104 12.2963 -0.459228 3.84645
40 1 -1.1104 9.36603 -3.05499 1.0239
41 1 -1.1104 9.45262 2.41552 1.11199
42 2 2.2208 7.99804 1.05556 2.45844
43 1 -1.1104 9.42312 -3.30292 3.78781
44 1 -1.1104 9.34815 2.48153 3.91922
45 2 2.2208 8.16575 -1.71679 5.15982
46 2 2.2208 7.87976 3.84941 5.07206
47 1 -1.1104 9.25198 -0.371586 1.14326
48 1 -1.1104 9.53725 -0.333371 3.91216
208 1 -1.1104 9.42231 -0.229711 6.65118
207 1 -1.1104 9.36078 2.64292 6.60317
572 2 2.2208 8.05989 3.95678 -0.433073
574 2 2.2208 2.40928 15.1828 -0.358796
9260 2 2.2208 -0.371112 6.6573 -0.372221
632 2 2.2208 10.9827 12.2492 -0.357681
54 2 2.2208 5.03417 6.62019 5.30187
55 2 2.2208 5.25755 12.1656 5.2487
56 1 -1.1104 1.07658 8.10231 1.05199
58 1 -1.1104 1.12462 8.14509 3.87336
60 1 -1.1104 0.916702 5.29483 1.11351
61 1 -1.1104 1.12008 10.8778 1.21419
66 2 2.2208 5.25587 9.44111 2.39003
67 1 -1.1104 0.950458 5.26226 3.78784
68 1 -1.1104 1.11224 10.9562 4.03056
71 1 -1.1104 3.75653 8.18893 0.939206
72 2 2.2208 2.36162 6.63017 2.49071
73 2 2.2208 2.37388 12.2348 2.51212
74 1 -1.1104 3.87842 8.05233 3.70646
75 2 2.2208 2.49221 9.40608 5.3394
76 1 -1.1104 3.84165 5.38804 1.01014
77 1 -1.1104 4.01016 10.8745 0.894253
79 1 -1.1104 3.76294 5.26718 3.95314
80 1 -1.1104 3.79006 10.7829 3.88715
232 1 -1.1104 1.01933 8.09873 6.63091
234 1 -1.1104 0.803619 5.30706 6.63002
78 1 -1.1104 3.93368 10.7504 6.59765
9024 2 2.2208 13.6699 15.2166 10.9284
59 1 -1.1104 6.63599 8.16113 3.77732
64 1 -1.1104 6.60623 10.9356 1.11273
236 1 -1.1104 3.84516 8.05481 6.6078
65 1 -1.1104 6.81371 10.7162 6.86355
235 1 -1.1104 6.56081 5.1149 6.65679
307 2 2.2208 -0.45491 -1.71259 13.6857
69 1 -1.1104 6.5362 5.34051 3.84872
70 1 -1.1104 6.69867 11.0045 4.02279
57 1 -1.1104 6.54492 8.13426 0.956138
63 1 -1.1104 6.6906 5.44065 0.993874
84 2 2.2208 10.9374 6.64818 5.23296
85 2 2.2208 10.833 12.2493 5.36951
86 1 -1.1104 12.2275 8.09442 1.13642
87 1 -1.1104 12.2675 8.02373 3.82904
88 1 -1.1104 12.2355 5.33465 1.14539
89 1 -1.1104 12.1888 10.8333 1.08488
91 2 2.2208 10.8684 9.43272 2.57697
92 1 -1.1104 12.2744 5.3468 3.90926
93 1 -1.1104 12.1569 10.9527 3.9136
94 1 -1.1104 9.45236 8.10501 1.10666
95 2 2.2208 7.95542 6.74529 2.44389
96 2 2.2208 8.10053 12.5014 2.53515
97 1 -1.1104 9.58418 8.01013 4.08402
98 2 2.2208 8.06414 9.47678 5.31806
99 1 -1.1104 9.51422 5.34841 1.03355
100 1 -1.1104 9.38157 11.1393 1.12459
102 1 -1.1104 9.39896 5.25081 3.75672
103 1 -1.1104 9.49267 10.9002 3.97423
233 1 -1.1104 6.53787 8.02299 6.54003
267 1 -1.1104 9.31084 5.43809 6.53947
101 1 -1.1104 9.5416 11.0192 6.82497
631 2 2.2208 8.02836 9.5645 -0.163222
8936 2 2.2208 13.7987 12.2086 8.21272
8752 2 2.2208 -0.440247 0.98449 10.8644
90 1 -1.1104 12.31 10.8615 6.72441
106 2 2.2208 5.22666 17.9749 5.23121
107 1 -1.1104 0.903162 13.6775 1.04078
109 1 -1.1104 0.968457 19.2466 1.08537
113 1 -1.1104 0.857536 13.709 3.89702
114 1 -1.1104 1.00212 19.2271 3.8214
116 1 -1.1104 0.938743 16.3823 0.969814
119 2 2.2208 5.15441 15.0471 2.56102
120 2 2.2208 5.22204 20.8193 2.46845
121 1 -1.1104 0.94157 16.3911 3.93043
123 1 -1.1104 3.62887 13.7606 1.27678
125 1 -1.1104 3.7078 19.3841 1.24702
127 2 2.2208 2.33396 17.7969 2.50026
128 1 -1.1104 3.79242 13.5812 3.97324
129 1 -1.1104 3.65221 19.2197 3.8888
130 2 2.2208 2.39468 14.9867 5.30846
131 2 2.2208 2.32582 20.6136 5.2418
132 1 -1.1104 3.77186 16.5262 1.20339
134 1 -1.1104 3.77207 16.454 3.835
139 1 -1.1104 6.59383 19.3952 4.01413
124 1 -1.1104 3.7974 13.7143 6.62112
108 1 -1.1104 1.15546 13.6352 6.78547
122 1 -1.1104 6.60703 16.5581 3.8681
140 1 -1.1104 6.72215 16.5631 1.14682
110 1 -1.1104 6.54403 13.7355 1.20161
115 1 -1.1104 6.59587 13.6673 3.93524
389 2 2.2208 10.8965 -1.74587 13.7742
30 1 -1.1104 9.48927 16.504 12.1929
118 1 -1.1104 6.70935 16.4659 6.51626
138 1 -1.1104 6.7868 19.4337 1.15594
141 2 2.2208 10.8996 17.9673 5.20193
142 1 -1.1104 12.1117 13.5985 1.15906
144 1 -1.1104 12.3532 19.2004 0.914016
146 1 -1.1104 12.4159 13.7807 3.98094
147 1 -1.1104 12.4682 19.1044 4.06396
148 1 -1.1104 12.1963 16.3994 1.05252
150 2 2.2208 10.9454 15.0946 2.55011
152 1 -1.1104 12.2466 16.4384 3.89364
153 1 -1.1104 9.42591 14.0569 1.14724
155 1 -1.1104 9.35388 19.1959 4.0959
156 2 2.2208 7.87297 17.9408 2.5461
157 1 -1.1104 9.51165 13.7402 4.02381
158 2 2.2208 8.08266 15.0936 5.21259
159 2 2.2208 8.04607 20.6292 5.43174
160 1 -1.1104 9.26416 17.1058 0.836703
162 1 -1.1104 9.26833 16.3866 3.58869
161 1 -1.1104 9.49476 16.5414 6.6586
111 1 -1.1104 6.63782 13.4983 6.63405
135 1 -1.1104 12.2868 16.4689 9.48732
8348 2 2.2208 2.35737 -4.53557 8.01061
8953 2 2.2208 -0.36446 9.32187 8.05812
8920 2 2.2208 -0.483031 14.9045 2.46964
172 1 -1.1104 3.87508 -0.442403 6.62028
170 1 -1.1104 3.76637 -3.09981 6.46793
9028 2 2.2208 -0.527033 6.63522 5.26393
607 2 2.2208 5.24838 12.3627 -0.309738
49 1 -1.1104 9.40122 16.4454 9.49437
822 1 -1.1104 12.2826 19.6607 6.79675
165 1 -1.1104 0.871545 2.479 6.57915
171 1 -1.1104 3.64525 2.42312 6.69863
105 2 2.2208 10.6831 20.6013 8.28789
173 2 2.2208 5.2274 0.953691 10.7612
174 1 -1.1104 0.933414 -3.15735 12.2393
175 1 -1.1104 0.884425 2.35244 12.1611
178 1 -1.1104 0.973232 -3.04766 9.34129
179 1 -1.1104 1.08132 2.34561 9.32625
182 1 -1.1104 1.08396 -0.244163 12.2216
184 2 2.2208 5.21315 -1.75379 7.91677
186 1 -1.1104 1.05716 -0.451371 9.49638
188 1 -1.1104 3.71604 -3.12755 12.1091
189 1 -1.1104 3.76462 2.3997 12.1576
190 2 2.2208 2.32659 0.932818 8.03564
191 1 -1.1104 3.6944 -3.21705 9.28663
192 1 -1.1104 3.89252 2.47607 9.45192
193 2 2.2208 2.45625 -1.82431 10.7796
194 2 2.2208 2.39529 3.73506 10.8095
195 1 -1.1104 3.73252 -0.276367 12.1601
196 1 -1.1104 3.87306 -0.492639 9.47326
185 2 2.2208 5.21566 3.89355 8.23656
181 1 -1.1104 6.76686 2.53672 9.42133
177 1 -1.1104 6.66508 2.54045 12.2463
8946 2 2.2208 -0.321959 12.3296 10.8517
163 2 2.2208 13.7506 17.9624 2.47247
9076 2 2.2208 -0.436019 17.8025 -0.395834
166 1 -1.1104 6.65364 -3.14483 6.48151
206 1 -1.1104 9.46334 -3.12258 6.59048
203 1 -1.1104 12.2796 -3.11566 6.72566
205 1 -1.1104 12.1592 -0.277644 6.65123
204 1 -1.1104 12.1322 2.59584 6.63009
180 1 -1.1104 6.53265 -3.21359 9.35032
176 1 -1.1104 6.61565 -3.33816 12.1337
169 1 -1.1104 6.66736 -0.239008 6.66725
167 1 -1.1104 6.42044 2.40103 6.84056
183 1 -1.1104 6.59036 -0.386518 12.1864
187 1 -1.1104 6.63532 -0.384014 9.53029
210 2 2.2208 10.8111 1.1839 10.8152
211 1 -1.1104 12.1849 -3.02809 12.3006
212 1 -1.1104 12.2151 2.48037 12.1169
213 1 -1.1104 12.266 -3.10817 9.54274
214 1 -1.1104 12.3921 2.34181 9.46756
215 1 -1.1104 12.2527 -0.234648 12.4685
216 2 2.2208 10.8049 -1.79422 8.06642
218 1 -1.1104 12.2241 -0.439424 9.51767
219 1 -1.1104 9.40725 -3.24414 12.1955
220 1 -1.1104 9.52238 2.51381 12.2209
221 2 2.2208 8.03896 1.08529 8.05566
222 1 -1.1104 9.29904 -3.1134 9.36799
223 1 -1.1104 9.40017 2.47814 9.33322
224 2 2.2208 8.15911 -1.75793 10.7814
225 2 2.2208 7.99645 3.99683 10.8473
226 1 -1.1104 9.51056 -0.365699 12.3317
227 1 -1.1104 9.47497 -0.427697 9.46156
217 2 2.2208 10.5949 3.89982 7.979
198 2 2.2208 -0.539976 -1.84294 8.00364
197 2 2.2208 8.07149 17.9382 8.12188
237 1 -1.1104 3.66172 5.27076 6.69617
295 1 -1.1104 6.68744 13.6631 12.2174
27 1 -1.1104 12.3296 13.6349 12.2004
137 1 -1.1104 9.5066 19.2133 12.2997
62 1 -1.1104 1.12406 10.9514 6.63532
238 2 2.2208 5.106 6.68061 10.8452
239 2 2.2208 5.27965 12.1351 10.8939
240 1 -1.1104 1.01874 8.05128 12.2968
242 1 -1.1104 0.931631 7.97846 9.59148
244 1 -1.1104 1.07829 5.2446 12.26
245 1 -1.1104 1.08441 10.9285 12.3025
248 2 2.2208 5.20691 9.40301 8.12708
249 1 -1.1104 1.16314 5.10374 9.5302
250 1 -1.1104 0.920347 10.5517 9.52874
253 1 -1.1104 3.99618 8.05529 12.4223
254 2 2.2208 2.38951 6.61683 8.2343
255 2 2.2208 2.61964 12.2146 7.92948
256 1 -1.1104 3.72606 8.18672 9.53632
257 2 2.2208 2.42876 9.48401 11.1565
258 1 -1.1104 3.82402 5.18689 12.2493
259 1 -1.1104 3.82759 10.8715 12.3585
260 1 -1.1104 3.85181 5.27242 9.54099
261 1 -1.1104 3.88639 10.8326 9.50532
246 1 -1.1104 6.59944 5.28489 12.3481
243 1 -1.1104 6.54926 8.061 9.47756
145 1 -1.1104 9.50441 19.3369 6.81774
265 1 -1.1104 9.33362 8.21978 6.72718
264 1 -1.1104 12.2645 5.32253 6.75543
263 1 -1.1104 12.2358 8.02913 6.68047
288 1 -1.1104 6.72982 13.6816 9.30339
136 1 -1.1104 9.56687 13.7957 12.5666
251 1 -1.1104 6.39782 5.24129 9.58429
241 1 -1.1104 6.56396 8.0401 12.2449
252 1 -1.1104 6.64942 10.8866 9.53049
247 1 -1.1104 6.57755 10.8675 12.4543
262 1 -1.1104 9.47719 11.0084 9.60861
266 1 -1.1104 9.24016 5.34244 9.30097
268 1 -1.1104 9.37891 10.9316 12.2667
269 1 -1.1104 9.41116 5.376 12.1433
270 2 2.2208 7.97912 9.397 10.8684
271 1 -1.1104 9.34956 8.05847 9.44373
272 2 2.2208 8.13506 12.314 8.1482
273 2 2.2208 7.81139 6.71367 7.92997
274 2 2.2208 10.7582 6.66424 10.8309
275 2 2.2208 11.0997 12.2862 10.8674
276 1 -1.1104 12.2082 8.13044 12.3475
277 1 -1.1104 12.0948 7.99465 9.4879
278 1 -1.1104 12.3431 5.19407 12.1453
279 1 -1.1104 12.2308 10.874 12.4127
280 2 2.2208 10.8127 9.46928 8.05704
281 1 -1.1104 12.1682 5.24844 9.41894
282 1 -1.1104 12.3135 10.856 9.60318
283 1 -1.1104 9.4473 8.08977 12.3278
133 1 -1.1104 3.94477 16.5087 6.58386
117 1 -1.1104 1.08716 16.5052 6.72235
300 1 -1.1104 0.906949 19.1899 6.71508
112 1 -1.1104 6.80497 19.2604 6.83403
104 2 2.2208 10.8707 15.0925 8.02364
294 1 -1.1104 6.68134 19.2707 12.4094
126 1 -1.1104 3.6535 19.3723 6.54297
302 1 -1.1104 3.87653 16.3336 9.43113
301 2 2.2208 2.39106 17.7851 8.0782
299 1 -1.1104 3.89361 19.1937 9.40864
305 1 -1.1104 0.951471 16.5426 12.2555
303 1 -1.1104 3.91085 13.6111 9.49953
202 2 2.2208 2.50708 15.0683 10.7811
209 2 2.2208 2.45556 20.5865 10.8062
231 1 -1.1104 3.82132 16.4603 12.3181
284 1 -1.1104 3.81935 19.1816 12.1881
285 1 -1.1104 4.0857 13.645 12.3829
289 1 -1.1104 0.904143 19.1035 9.43132
290 1 -1.1104 1.18553 16.4382 9.50678
291 2 2.2208 5.15807 20.633 8.0697
292 1 -1.1104 1.1008 13.5476 9.48021
293 2 2.2208 5.22017 15.0248 7.99344
296 1 -1.1104 1.11726 19.3175 12.3752
297 1 -1.1104 1.0649 13.7096 12.2269
298 2 2.2208 5.22175 17.8235 10.8288
287 1 -1.1104 6.58082 16.51 9.40582
286 1 -1.1104 6.59889 19.2235 9.56639
304 1 -1.1104 6.59687 16.5639 12.2621
575 2 2.2208 5.18713 17.8871 -0.254085
26 2 2.2208 10.9397 17.7994 10.8797
83 1 -1.1104 12.385 16.536 12.3823
82 1 -1.1104 12.3063 19.3212 9.6341
200 1 -1.1104 9.54157 19.1774 9.56727
81 1 -1.1104 12.4851 13.7618 9.37515
143 1 -1.1104 12.2291 13.8343 6.67797
50 1 -1.1104 12.3923 19.2796 12.4256
52 2 2.2208 7.99817 20.6918 11.0248
154 1 -1.1104 9.32442 13.8465 6.72939
149 1 -1.1104 12.2477 16.769 6.62516
53 2 2.2208 8.01084 15.0829 10.8905
9029 2 2.2208 -0.383423 9.39047 2.50708
199 1 -1.1104 9.70966 13.8115 9.71805
228 2 2.2208 13.6855 1.01633 7.89755
8954 2 2.2208 -0.46562 6.52598 10.8806
606 2 2.2208 2.39996 9.55107 -0.447505
8884 2 2.2208 -0.54375 3.80752 8.06765
9030 2 2.2208 -0.443845 12.0771 5.316
9032 2 2.2208 13.6849 6.67926 2.50727
51 2 2.2208 13.6001 -1.77287 5.26218
9025 2 2.2208 13.7012 18.0133 8.16181
9027 2 2.2208 13.5271 1.08743 2.56032
229 2 2.2208 13.6603 -1.67417 10.8283
390 2 2.2208 10.8882 3.97955 13.5902
315 2 2.2208 5.37321 20.5992 13.8391
425 2 2.2208 5.24875 9.56286 13.7073
488 2 2.2208 2.4004 17.9101 13.8128
605 2 2.2208 5.24746 6.76704 -0.41055
630 2 2.2208 10.7499 6.61561 -0.383004
352 2 2.2208 8.07247 15.2439 -0.279423
576 2 2.2208 2.34026 20.7657 -0.316868
570 2 2.2208 10.9615 1.08704 -0.379814
9111 2 2.2208 13.6946 9.50865 -0.364313
318 2 2.2208 5.36578 1.09902 16.4452
319 1 -1.1104 0.964163 -3.13217 17.7414
320 1 -1.1104 1.09936 2.37179 18.0557
323 1 -1.1104 0.855355 -3.08687 15.0479
324 1 -1.1104 1.00829 2.53392 15.1877
329 1 -1.1104 1.14926 -0.29649 18.1143
331 2 2.2208 5.21453 -1.80344 19.2007
333 1 -1.1104 1.03964 -0.288267 14.9715
336 1 -1.1104 3.8014 -3.2699 17.835
337 1 -1.1104 3.86917 2.33848 17.5876
338 2 2.2208 2.64203 0.983316 19.0746
339 1 -1.1104 3.87372 -3.08747 14.8501
341 1 -1.1104 3.77204 2.45937 15.0383
343 2 2.2208 2.49444 -1.70629 16.367
344 2 2.2208 2.55129 3.8844 16.3442
345 1 -1.1104 3.88297 -0.557637 17.7253
346 1 -1.1104 3.75739 -0.265785 15.0484
332 2 2.2208 5.30843 3.92772 19.2538
340 1 -1.1104 3.94277 -3.27323 20.4343
9101 1 -1.1104 0.742178 -3.05084 20.4055
342 1 -1.1104 3.44247 2.86259 20.377
347 1 -1.1104 3.92286 0.00476056 20.5595
311 2 2.2208 2.35098 6.73998 13.6289
330 1 -1.1104 6.65948 -0.238068 17.8701
327 1 -1.1104 6.69449 2.47867 14.9991
547 2 2.2208 2.41565 -4.40382 24.8176
8573 2 2.2208 2.4175 -4.63027 19.28
9147 2 2.2208 13.712 12.2091 19.3366
328 1 -1.1104 6.46609 2.51352 20.8098
546 2 2.2208 5.20751 -4.48099 22.0534
310 2 2.2208 5.22217 3.95858 13.5644
9216 2 2.2208 13.5963 20.799 16.4757
321 1 -1.1104 6.78183 -3.00374 17.6805
325 1 -1.1104 6.63443 -3.18328 14.91
334 1 -1.1104 6.67501 -0.294567 15.084
322 1 -1.1104 6.6861 2.54232 17.8232
358 2 2.2208 10.867 1.29385 16.3579
359 1 -1.1104 12.2276 -2.93801 17.9164
360 1 -1.1104 12.2982 2.61293 17.9986
361 1 -1.1104 12.1608 -2.97075 15.0909
363 1 -1.1104 12.2465 2.69596 15.096
365 1 -1.1104 12.3443 -0.257204 17.8837
366 2 2.2208 10.6865 -1.68054 19.2909
367 2 2.2208 10.7939 3.97211 19.3201
368 1 -1.1104 12.3596 -0.153728 15.1564
370 1 -1.1104 9.56048 -3.31004 17.9933
371 1 -1.1104 9.40608 2.62145 17.833
372 2 2.2208 8.07106 1.214 19.2301
373 1 -1.1104 9.56061 -2.99509 15.0888
375 1 -1.1104 9.48066 2.72179 15.0807
377 2 2.2208 8.2662 -1.67662 16.3879
378 2 2.2208 8.08476 3.99751 16.3319
379 1 -1.1104 9.43087 -0.252114 17.773
380 1 -1.1104 9.43619 -0.0842132 15.022
369 1 -1.1104 12.3017 -0.318425 20.7301
326 1 -1.1104 6.52641 -3.01738 20.6549
8547 2 2.2208 10.8501 -4.54874 16.4984
9332 2 2.2208 13.727 9.50097 22.2852
428 2 2.2208 10.9257 9.49832 13.641
391 2 2.2208 5.33874 6.64486 16.5249
392 2 2.2208 5.23248 12.2116 16.4456
393 1 -1.1104 1.01731 8.19241 18.0189
395 1 -1.1104 1.01279 8.14638 15.0726
399 1 -1.1104 1.13314 5.38054 17.7762
400 1 -1.1104 1.05589 10.8336 18.1054
403 2 2.2208 5.33172 9.43755 19.2363
404 1 -1.1104 1.03967 5.23488 15.0638
406 1 -1.1104 1.02168 10.7849 15.0811
412 1 -1.1104 4.03889 8.1174 17.9431
413 2 2.2208 2.50563 6.64594 19.3419
414 2 2.2208 2.5094 12.2938 19.328
415 1 -1.1104 4.02914 8.23979 15.1971
417 2 2.2208 2.46816 9.4865 16.4552
418 1 -1.1104 3.94703 5.25747 17.9462
419 1 -1.1104 4.10606 10.9003 17.9413
420 1 -1.1104 3.91923 5.26567 15.0318
422 1 -1.1104 3.88446 10.9351 15.1487
396 1 -1.1104 1.16443 7.98487 20.7588
401 1 -1.1104 6.77558 5.22394 17.972
410 1 -1.1104 6.85131 10.9281 15.358
394 1 -1.1104 6.86281 7.98444 17.8844
397 1 -1.1104 6.74467 8.06628 15.0563
314 2 2.2208 8.06182 1.08093 13.5658
411 1 -1.1104 6.72787 10.877 20.9313
426 2 2.2208 2.46291 12.3664 13.7553
9187 2 2.2208 -0.387312 9.54506 19.3792
9188 2 2.2208 -0.478752 6.71273 16.5255
309 2 2.2208 2.47498 0.989543 13.5713
402 1 -1.1104 6.8738 10.8958 18.1987
408 1 -1.1104 6.64476 5.2548 15.035
429 2 2.2208 10.8803 6.76004 16.6356
430 2 2.2208 10.8851 12.1739 16.5337
431 1 -1.1104 12.3001 8.0175 17.9578
432 1 -1.1104 12.4 8.06886 15.1515
434 1 -1.1104 12.351 5.38848 17.8588
435 1 -1.1104 12.4274 10.7832 18.0131
436 2 2.2208 11.0078 9.46418 19.3853
437 1 -1.1104 12.2917 5.3163 14.9394
439 1 -1.1104 12.3502 10.8732 15.2422
441 1 -1.1104 9.55758 7.999 18.003
442 2 2.2208 8.18841 6.71991 19.4138
443 2 2.2208 8.00631 12.3864 19.3967
444 1 -1.1104 9.52452 8.09874 15.0823
446 2 2.2208 8.21651 9.45482 16.6003
447 1 -1.1104 9.47532 5.28263 17.8541
448 1 -1.1104 9.75378 11.0918 18.0287
449 1 -1.1104 9.4285 5.33949 14.9961
451 1 -1.1104 9.62773 10.9848 15.026
398 1 -1.1104 6.73346 8.09448 20.6852
385 1 -1.1104 9.33077 19.1656 26.8158
427 2 2.2208 8.0464 12.3471 13.7353
453 2 2.2208 8.02184 6.80217 13.5574
610 2 2.2208 10.9453 15.0115 24.9524
455 2 2.2208 5.23669 17.8738 16.5563
456 1 -1.1104 0.954192 13.6699 17.8709
457 1 -1.1104 1.06957 19.1491 17.9129
460 1 -1.1104 0.990903 13.7698 15.0343
462 1 -1.1104 0.913674 19.1531 15.1867
468 1 -1.1104 1.13921 16.6162 17.9563
470 2 2.2208 5.23169 15.113 19.3744
471 2 2.2208 5.23267 20.6596 19.2814
472 1 -1.1104 0.928658 16.5826 15.0082
476 1 -1.1104 3.68372 13.6159 17.7364
477 1 -1.1104 3.89185 19.2639 17.9701
478 2 2.2208 2.44499 17.9018 19.295
479 1 -1.1104 3.73238 13.7107 15.1312
481 1 -1.1104 3.82882 19.2987 15.0946
483 2 2.2208 2.35771 15.0794 16.4671
484 2 2.2208 2.44043 20.6362 16.5427
485 1 -1.1104 3.79069 16.4816 17.9178
486 1 -1.1104 3.68336 16.4949 15.0377
487 1 -1.1104 3.76689 16.5488 20.7757
458 1 -1.1104 6.45881 13.72 17.9623
466 1 -1.1104 6.62285 19.2672 15.2767
469 1 -1.1104 6.65242 16.4062 17.8369
464 1 -1.1104 6.62259 13.8387 15.1508
474 1 -1.1104 6.69029 16.5149 15.0352
473 1 -1.1104 0.957037 16.5922 20.7559
463 1 -1.1104 0.954229 19.4298 20.8224
637 1 -1.1104 6.82695 13.8128 26.5672
454 2 2.2208 5.29313 15.1591 13.6842
9109 2 2.2208 -0.374004 15.0223 25.0436
17401 2 2.2208 -0.468261 -4.51096 21.9145
459 1 -1.1104 6.58523 19.2043 18.0461
490 2 2.2208 10.7978 17.9163 16.3743
491 1 -1.1104 12.2756 13.7059 18.0252
492 1 -1.1104 12.2598 19.2471 17.8244
493 1 -1.1104 12.2696 13.6567 15.1104
495 1 -1.1104 12.186 19.1186 15.1197
497 1 -1.1104 12.0901 16.5103 17.8185
498 2 2.2208 10.6598 15.0706 19.4193
499 2 2.2208 10.7679 20.6161 19.2347
500 1 -1.1104 12.1254 16.412 15.0969
502 1 -1.1104 9.30745 13.6222 18.0741
503 1 -1.1104 9.36504 19.2373 17.9966
504 2 2.2208 8.19866 17.8495 19.2945
505 1 -1.1104 9.31191 13.5763 15.1725
507 1 -1.1104 9.49511 19.6811 15.1281
509 2 2.2208 7.91666 15.0676 16.5853
510 2 2.2208 7.94447 20.6409 16.7119
511 1 -1.1104 9.43197 16.4062 18.0172
512 1 -1.1104 9.34914 16.5995 14.9322
475 1 -1.1104 6.55485 16.4533 20.7811
494 1 -1.1104 12.1068 13.6934 20.8349
316 2 2.2208 8.01222 17.8431 13.666
508 1 -1.1104 9.28714 19.2947 20.8366
513 1 -1.1104 9.44104 16.5815 20.7638
465 1 -1.1104 6.53445 13.8172 20.7227
501 1 -1.1104 12.1879 16.5431 20.6877
646 1 -1.1104 6.72337 13.8476 23.7003
611 2 2.2208 10.77 20.7171 24.8981
387 1 -1.1104 9.63315 13.6671 26.3223
518 2 2.2208 5.15323 1.02395 22.1525
519 1 -1.1104 0.704696 -3.29831 23.6056
520 1 -1.1104 1.35996 2.75491 23.5543
523 1 -1.1104 1.05696 -3.07695 26.4558
524 1 -1.1104 1.16375 2.62178 26.3486
528 2 2.2208 4.9625 -1.70282 24.8981
529 2 2.2208 5.35187 3.96328 24.9251
530 1 -1.1104 1.0542 -0.395261 25.8755
532 1 -1.1104 4.01944 -3.38447 23.6483
533 1 -1.1104 4.06714 2.66447 23.4982
534 2 2.2208 2.59881 1.27637 24.8717
535 1 -1.1104 3.79063 -3.02244 26.2439
536 1 -1.1104 3.95718 2.66223 26.2981
538 1 -1.1104 3.70596 -0.19369 23.6093
539 1 -1.1104 3.82257 -0.0385744 26.3352
550 3 0 0.675047 0.00993079 21.9219
537 2 2.2208 2.6328 4.12525 22.2308
526 1 -1.1104 6.68826 2.53329 26.2781
609 1 -1.1104 12.2352 16.409 23.4494
573 2 2.2208 8.08949 17.9466 24.9998
364 1 -1.1104 12.1634 2.50519 20.7504
376 1 -1.1104 9.31465 2.58691 20.6855
362 1 -1.1104 12.1673 -2.9168 20.7109
506 1 -1.1104 9.37106 13.8362 20.8162
374 1 -1.1104 9.3975 -3.02172 20.8115
381 1 -1.1104 9.51148 -0.298809 20.6426
335 1 -1.1104 6.77749 -0.191358 20.7057
527 1 -1.1104 6.50009 -0.250051 23.4778
521 1 -1.1104 6.70143 -3.14776 23.3681
525 1 -1.1104 6.55427 -3.10565 26.22
531 1 -1.1104 6.43769 -0.294392 26.3987
522 1 -1.1104 6.68891 2.63395 23.5662
552 2 2.2208 10.6948 1.10931 21.9688
553 1 -1.1104 12.3757 -2.97202 23.589
554 1 -1.1104 12.3369 2.59808 23.5067
555 1 -1.1104 12.1487 -3.12847 26.3357
556 1 -1.1104 12.3342 2.45134 26.3098
557 1 -1.1104 12.0408 -0.266624 23.5428
558 2 2.2208 10.7735 -1.82558 24.9346
559 2 2.2208 10.8968 3.86639 24.8883
560 1 -1.1104 12.4392 -0.344102 26.3581
561 1 -1.1104 9.57777 -3.13019 23.6575
562 1 -1.1104 9.47676 2.44305 23.5171
563 2 2.2208 7.94333 1.02572 24.8409
564 1 -1.1104 9.38777 -3.0153 26.3189
565 1 -1.1104 9.52203 2.65622 26.3757
566 2 2.2208 7.87843 -1.70017 21.9821
567 2 2.2208 8.06419 3.96781 22.2141
568 1 -1.1104 9.28757 -0.262781 23.4155
569 1 -1.1104 9.45809 -0.224067 26.2846
382 2 2.2208 7.8691 20.799 22.1413
423 1 -1.1104 3.96788 10.9863 20.7447
407 1 -1.1104 1.18083 11.0156 20.6822
416 1 -1.1104 3.89108 8.19388 20.5612
421 1 -1.1104 3.8663 5.56264 20.811
405 1 -1.1104 1.21365 5.03248 20.5898
581 2 2.2208 5.26512 6.7949 22.2417
582 2 2.2208 5.35873 12.2937 22.1568
583 1 -1.1104 1.10132 8.16264 23.5244
585 1 -1.1104 1.1879 8.19077 26.2868
587 1 -1.1104 1.10539 5.49544 23.4343
588 1 -1.1104 1.03187 10.9153 23.6361
591 2 2.2208 5.20145 9.54959 24.9501
592 1 -1.1104 1.17144 5.31252 26.338
593 1 -1.1104 1.14947 11.09 26.4354
596 1 -1.1104 3.80872 8.11111 23.5381
597 2 2.2208 2.32591 6.68427 24.8471
598 2 2.2208 2.46443 12.4583 24.889
599 1 -1.1104 3.95055 8.13831 26.3418
600 2 2.2208 2.6068 9.50039 22.0736
601 1 -1.1104 3.98995 5.33534 23.5449
602 1 -1.1104 3.78847 10.9098 23.6786
603 1 -1.1104 3.77744 5.42439 26.272
604 1 -1.1104 3.99574 11.1432 26.3798
584 1 -1.1104 6.6307 8.23061 23.4383
549 1 -1.1104 12.3761 13.5972 23.6076
517 2 2.2208 10.8097 15.0557 13.7876
635 1 -1.1104 9.37841 19.3595 23.8107
354 2 2.2208 7.97249 15.1219 22.1909
445 1 -1.1104 9.54337 8.1665 20.8245
452 1 -1.1104 9.51596 11.0285 20.7694
438 1 -1.1104 12.105 5.28952 20.8153
409 1 -1.1104 6.81207 5.38735 20.7109
440 1 -1.1104 12.3501 10.9252 20.835
433 1 -1.1104 12.3783 8.04188 20.8245
384 1 -1.1104 9.53332 16.4639 26.2588
450 1 -1.1104 9.43857 5.33813 21.0078
586 1 -1.1104 6.76725 8.16686 26.318
594 1 -1.1104 6.75379 5.30964 26.3901
590 1 -1.1104 6.60799 10.9261 23.602
589 1 -1.1104 6.66307 5.56017 23.6006
595 1 -1.1104 6.76653 10.841 26.4378
612 1 -1.1104 9.53434 10.8909 26.4348
613 1 -1.1104 9.45459 5.3754 26.1855
614 1 -1.1104 9.5694 10.9846 23.5468
615 1 -1.1104 9.5775 5.20509 23.609
616 2 2.2208 8.20691 9.55444 22.1582
617 1 -1.1104 9.40983 8.22614 26.3842
618 2 2.2208 8.08485 12.2166 25.0945
619 2 2.2208 8.19959 6.81862 24.9996
620 2 2.2208 10.879 6.77559 22.2392
621 2 2.2208 10.8394 12.327 22.2161
622 1 -1.1104 12.248 8.11588 23.6112
623 1 -1.1104 12.3829 8.04927 26.4732
624 1 -1.1104 12.3634 5.21428 23.5088
625 1 -1.1104 12.4151 10.7854 23.6875
626 2 2.2208 10.8876 9.4336 25.0107
627 1 -1.1104 12.2357 5.21554 26.2742
628 1 -1.1104 12.3785 10.9285 26.3577
629 1 -1.1104 9.45548 8.21129 23.6296
496 1 -1.1104 12.1108 19.3107 20.7187
608 1 -1.1104 12.066 19.39 26.3181
551 1 -1.1104 12.1172 19.2696 23.5307
461 1 -1.1104 1.11456 13.7687 20.7015
480 1 -1.1104 3.81266 13.8121 20.5712
482 1 -1.1104 3.79974 19.3009 20.8092
467 1 -1.1104 6.56993 19.4588 20.9476
357 1 -1.1104 6.63712 16.6412 23.6686
351 2 2.2208 2.48005 15.0639 22.0285
353 2 2.2208 2.48579 20.7426 22.0541
355 1 -1.1104 3.88894 16.4665 23.6914
356 1 -1.1104 0.974622 16.5738 23.5343
424 1 -1.1104 3.84461 13.8783 26.4491
515 2 2.2208 2.42308 17.9475 25.0243
516 1 -1.1104 3.70972 16.6837 26.3382
540 1 -1.1104 3.89067 19.3312 26.6422
636 1 -1.1104 3.84076 19.2303 23.5166
638 1 -1.1104 3.87477 13.7266 23.6138
640 1 -1.1104 1.07745 19.3651 26.4516
641 1 -1.1104 0.946998 16.4578 26.3213
642 1 -1.1104 1.11849 13.8306 26.3049
644 2 2.2208 5.15362 20.5288 24.8461
645 2 2.2208 5.40017 15.2341 24.9891
647 1 -1.1104 0.996442 19.3226 23.6279
648 1 -1.1104 1.01442 13.744 23.5527
649 2 2.2208 5.15556 18.0049 22.1337
639 1 -1.1104 6.80204 16.6269 26.399
543 1 -1.1104 6.59376 19.372 26.3217
548 2 2.2208 10.8912 17.9241 22.102
643 1 -1.1104 6.61965 19.3459 23.6231
383 1 -1.1104 9.32305 16.5678 23.6012
634 1 -1.1104 9.5699 13.7524 23.5057
580 1 -1.1104 12.3311 13.6592 26.375
633 1 -1.1104 12.2335 16.6667 26.1677
312 2 2.2208 10.9792 20.5436 13.6266
544 2 2.2208 7.88232 20.8204 27.5945
9215 2 2.2208 13.6274 17.8226 19.3634
9150 2 2.2208 -0.426268 12.3154 16.4759
579 2 2.2208 13.6302 1.06043 24.8896
9256 2 2.2208 -0.49288 17.8919 16.5512
9286 2 2.2208 -0.201431 9.63127 24.9562
9255 2 2.2208 -0.427461 15.1116 19.5097
9069 2 2.2208 -0.448872 17.9125 22.1673
9213 2 2.2208 13.6087 15.0892 16.5767
9360 2 2.2208 -0.430808 6.78512 22.0208
348 2 2.2208 13.5966 1.01366 19.3487
9042 2 2.2208 13.8168 18.0147 13.789
9261 2 2.2208 -0.326777 12.2472 22.2047
9115 2 2.2208 13.6811 20.747 22.1373
578 2 2.2208 13.5794 -1.51379 22.1902
514 2 2.2208 10.9262 17.86 27.6489
8508 2 2.2208 8.01933 -4.56365 13.544
545 2 2.2208 5.13513 -4.51981 27.7002
9291 2 2.2208 13.6405 3.91606 27.8021
571 2 2.2208 7.97622 -1.71274 27.6345
542 2 2.2208 2.47477 3.9763 27.7691
308 2 2.2208 5.26229 -1.7911 13.5777
577 2 2.2208 13.6043 -1.79451 27.7491
306 2 2.2208 13.5186 20.79 27.789
650 2 2.2208 5.20962 23.4883 5.25366
651 2 2.2208 5.12295 29.1788 5.23491
652 1 -1.1104 0.985887 24.7936 0.949637
653 1 -1.1104 0.757648 24.9231 3.8749
654 1 -1.1104 0.801136 22.049 1.0062
655 1 -1.1104 0.896025 27.6597 1.02028
656 2 2.2208 5.03287 26.3116 2.31481
657 1 -1.1104 0.998606 22.1086 3.95334
658 1 -1.1104 0.945576 27.7182 3.94926
659 1 -1.1104 3.7253 24.956 0.947143
660 2 2.2208 2.25451 23.3804 2.49313
661 2 2.2208 2.34923 29.1068 2.50919
662 1 -1.1104 3.63663 24.8598 3.69562
663 2 2.2208 2.35713 26.3327 5.26627
664 1 -1.1104 3.60709 22.1676 1.03866
665 1 -1.1104 3.69344 27.745 1.01501
666 1 -1.1104 3.84234 22.1017 3.78911
667 1 -1.1104 3.67557 27.6895 3.85886
672 1 -1.1104 6.43858 25.1042 3.87955
671 1 -1.1104 6.56243 24.9724 1.11401
673 1 -1.1104 6.38342 22.18 1.10811
676 1 -1.1104 6.44781 27.6883 3.7729
1542 1 -1.1104 12.2441 47.2685 9.56181
791 1 -1.1104 1.0412 27.6247 6.90085
694 2 2.2208 13.391 26.2992 5.28613
674 1 -1.1104 6.51253 27.6791 0.979301
675 1 -1.1104 6.93608 22.1366 3.92789
677 2 2.2208 10.8144 29.0125 5.24542
678 1 -1.1104 12.1062 25.1902 0.910406
679 1 -1.1104 12.3252 25.152 3.53305
680 1 -1.1104 12.4359 22.467 0.980364
681 1 -1.1104 12.1499 27.9794 0.985247
682 2 2.2208 10.7775 26.3383 2.45436
683 1 -1.1104 12.1394 27.7523 3.97961
684 1 -1.1104 9.33795 24.9216 0.999066
685 2 2.2208 7.91679 23.5522 2.37024
686 2 2.2208 7.91155 29.1356 2.39287
687 1 -1.1104 9.06794 24.9387 3.89308
688 2 2.2208 7.88591 26.3889 5.17453
689 1 -1.1104 9.08806 22.1571 0.939467
690 1 -1.1104 9.30329 27.806 1.12186
691 1 -1.1104 9.27382 27.6646 3.79906
151 3 0 10.94 21.8755 3.87545
826 1 -1.1104 9.30859 27.2752 6.74091
793 1 -1.1104 6.7003 27.8296 6.49204
740 2 2.2208 13.6262 34.7363 2.47549
9616 2 2.2208 13.662 37.5613 10.8014
789 1 -1.1104 6.74819 24.9301 6.63268
825 1 -1.1104 9.43494 22.0722 7.02959
1501 1 -1.1104 6.68006 47.4274 6.67714
698 2 2.2208 5.24742 34.6471 5.3196
699 1 -1.1104 1.00154 30.42 1.05056
700 1 -1.1104 1.05369 36.1167 1.16492
702 1 -1.1104 0.935622 30.4168 3.78773
703 1 -1.1104 1.21644 36.0636 4.01684
705 1 -1.1104 1.00238 33.2008 1.04696
706 2 2.2208 5.17225 31.9207 2.55991
707 2 2.2208 5.27769 37.4792 2.61639
708 1 -1.1104 1.16488 33.2049 3.77013
710 1 -1.1104 3.76088 30.5919 0.98866
711 1 -1.1104 3.77466 36.173 0.878026
712 2 2.2208 2.47098 34.6594 2.44814
713 1 -1.1104 3.71814 30.5644 3.84548
714 1 -1.1104 3.92221 36.0283 3.84134
715 2 2.2208 2.37 31.7697 5.25036
716 2 2.2208 2.45015 37.4114 5.2792
717 1 -1.1104 3.78074 33.3508 1.19833
718 1 -1.1104 3.87054 33.2838 3.95932
709 1 -1.1104 6.53048 33.2365 3.89973
704 1 -1.1104 6.68623 36.1216 3.95698
668 2 2.2208 13.4869 43.192 10.8081
720 1 -1.1104 6.51357 30.5323 3.79831
701 1 -1.1104 6.72669 36.0615 1.15746
719 1 -1.1104 6.68064 30.4866 0.979229
844 1 -1.1104 0.97599 30.3806 6.61605
850 1 -1.1104 3.71162 30.5102 6.60842
845 1 -1.1104 0.686249 35.992 6.5833
952 1 -1.1104 12.1955 41.7515 6.65298
971 2 2.2208 8.02616 34.5864 13.6035
1534 1 -1.1104 9.3768 47.4045 6.75653
721 1 -1.1104 6.51979 33.3308 1.10131
987 2 2.2208 2.25263 43.2735 -0.353698
722 2 2.2208 10.7502 34.6304 5.31881
723 1 -1.1104 12.2647 30.6448 1.05119
724 1 -1.1104 12.1987 36.2419 1.02912
725 1 -1.1104 12.0817 30.7112 3.92348
726 1 -1.1104 12.1932 36.2365 3.97981
727 1 -1.1104 12.1535 33.3528 0.981956
728 2 2.2208 10.7373 31.9383 2.48828
729 2 2.2208 10.8628 37.5449 2.50612
730 1 -1.1104 12.1481 33.3766 3.83056
731 1 -1.1104 9.46617 30.5039 1.00395
732 1 -1.1104 9.46119 36.1365 1.11318
733 2 2.2208 8.1125 34.731 2.4329
734 1 -1.1104 9.36417 30.5858 3.85849
735 1 -1.1104 9.51467 36.1952 3.98974
736 2 2.2208 8.0693 31.8483 5.22321
737 2 2.2208 8.00906 37.4737 5.28936
738 1 -1.1104 9.37928 33.2985 1.04772
739 1 -1.1104 9.30561 33.3933 3.92675
846 1 -1.1104 6.60827 30.4278 6.57833
882 1 -1.1104 9.41178 35.9041 6.77983
883 1 -1.1104 9.45557 33.1552 6.67786
1506 1 -1.1104 6.66896 47.2445 12.1655
1148 2 2.2208 11.0508 45.835 -0.336315
980 2 2.2208 10.8025 23.4398 -0.408989
1348 1 -1.1104 12.3767 47.3233 1.01237