ITEM: TIMESTEP
60000
ITEM: NUMBER OF ATOMS
17700
ITEM: BOX BOUNDS pp pp pp
-3.7515669855517747e-01 2.7715156698555411e+01
-4.5267348278899373e+00 3.3260673482789178e+02
-3.7211335415359764e-01 2.7712113354152997e+01
ITEM: ATOMS id type q x y z
1 2 2.2208 5.26969 1.11823 5.16528
2 1 -1.1104 0.97047 -3.23394 1.15436
3 1 -1.1104 0.933247 2.55516 1.03233
6 1 -1.1104 0.90495 -3.11753 3.91333
7 1 -1.1104 1.15659 2.55079 3.84167
10 1 -1.1104 0.920229 -0.101837 0.970204
12 2 2.2208 5.28088 -1.65893 2.40774
13 2 2.2208 5.21875 3.882 2.34828
14 1 -1.1104 1.05226 -0.294429 3.86501
16 1 -1.1104 3.80722 -2.96132 1.00214
17 1 -1.1104 3.70271 2.45194 1.01973
18 2 2.2208 2.41454 1.15818 2.47108
19 1 -1.1104 3.80676 -3.00469 3.87712
20 1 -1.1104 3.89658 2.56265 3.86605
21 2 2.2208 2.32014 -1.7021 5.2801
22 2 2.2208 2.50182 4.0059 5.18707
23 1 -1.1104 3.73457 -0.293158 1.15198
24 1 -1.1104 3.94285 -0.222176 3.84828
168 1 -1.1104 0.966441 -0.144019 6.54011
172 1 -1.1104 3.82433 -0.177604 6.6827
314 2 2.2208 8.12239 1.08069 13.6553
165 1 -1.1104 1.05591 2.57981 6.49916
164 1 -1.1104 0.893641 -2.96934 6.6645
8 1 -1.1104 6.7149 -3.12485 3.83687
15 1 -1.1104 6.81101 -0.261426 3.69322
166 1 -1.1104 6.52441 -3.02712 6.50908
28 2 2.2208 2.57629 -4.52525 2.43746
83 1 -1.1104 12.1864 16.7044 12.2751
295 1 -1.1104 6.42437 13.8069 12.3953
104 2 2.2208 10.8928 15.2009 7.90023
8508 2 2.2208 7.90571 -4.31257 13.5829
4 1 -1.1104 6.64547 -3.12794 1.03368
11 1 -1.1104 6.57833 -0.330345 0.842393
169 1 -1.1104 6.61272 -0.328915 6.59736
9 1 -1.1104 6.66435 2.41325 3.8092
5 1 -1.1104 6.64252 2.5744 0.891125
31 2 2.2208 10.9261 1.06668 5.17437
32 1 -1.1104 12.1973 -3.23468 1.11805
33 1 -1.1104 12.3108 2.51501 1.07671
34 1 -1.1104 12.308 -3.15504 3.97429
35 1 -1.1104 12.3348 2.49282 3.82496
36 1 -1.1104 12.1704 -0.270912 1.17965
37 2 2.2208 10.8828 -1.83815 2.46978
38 2 2.2208 11.0029 3.86873 2.53176
39 1 -1.1104 12.466 -0.362323 3.91343
40 1 -1.1104 9.38018 -3.21281 0.912116
41 1 -1.1104 9.612 2.4312 1.00474
42 2 2.2208 8.1428 1.05965 2.32001
43 1 -1.1104 9.631 -3.0729 3.84309
44 1 -1.1104 9.59242 2.49611 3.89225
45 2 2.2208 8.06157 -1.78616 5.23827
46 2 2.2208 8.03931 3.80467 5.29076
47 1 -1.1104 9.45555 -0.322962 0.892088
48 1 -1.1104 9.47955 -0.289749 3.84861
167 1 -1.1104 6.59697 2.57552 6.55791
206 1 -1.1104 9.39037 -3.26724 6.57026
207 1 -1.1104 9.4269 2.36759 6.73135
8351 2 2.2208 10.8278 -4.49401 10.8765
29 2 2.2208 5.15604 -4.48394 5.35176
54 2 2.2208 5.15976 6.81803 5.19316
55 2 2.2208 5.19562 12.3214 5.20599
56 1 -1.1104 1.10294 8.20167 0.996227
58 1 -1.1104 1.14541 8.1063 3.87059
60 1 -1.1104 1.02456 5.40342 0.772064
61 1 -1.1104 0.959566 11.0963 0.879987
66 2 2.2208 5.27531 9.59695 2.42839
67 1 -1.1104 0.93923 5.40437 3.56443
68 1 -1.1104 0.878958 10.9162 3.88706
71 1 -1.1104 3.90548 8.07503 0.9841
72 2 2.2208 2.27537 6.78169 2.31285
73 2 2.2208 2.35691 12.3584 2.38126
74 1 -1.1104 3.75261 8.1102 3.81684
75 2 2.2208 2.42051 9.59849 5.25123
76 1 -1.1104 3.98384 5.24049 0.935947
77 1 -1.1104 3.85264 11.0201 1.09369
79 1 -1.1104 3.73828 5.45566 3.76929
80 1 -1.1104 3.62536 11.0245 3.87618
62 1 -1.1104 1.13765 10.9167 6.74679
232 1 -1.1104 0.947975 8.1609 6.6328
69 1 -1.1104 6.54951 5.35513 3.68772
78 1 -1.1104 3.88266 11.0035 6.64381
234 1 -1.1104 0.945045 5.40017 6.45836
236 1 -1.1104 3.75306 8.23281 6.66789
57 1 -1.1104 6.68858 8.29539 1.12367
59 1 -1.1104 6.50683 8.13043 3.85093
63 1 -1.1104 6.66343 5.40601 0.985632
70 1 -1.1104 6.51847 10.8398 3.82876
235 1 -1.1104 6.6904 5.41221 6.51996
286 1 -1.1104 6.70762 19.3314 9.59237
198 2 2.2208 -0.488763 -1.57317 8.03492
25 2 2.2208 -0.402478 -1.68409 2.37507
64 1 -1.1104 6.79267 11.0389 1.06036
84 2 2.2208 10.8986 6.72175 5.24162
85 2 2.2208 11.0209 12.2289 5.22197
86 1 -1.1104 12.3152 8.06318 1.04214
87 1 -1.1104 12.2055 8.22885 3.92807
88 1 -1.1104 12.2004 5.32794 1.16468
89 1 -1.1104 12.1211 10.946 1.03523
91 2 2.2208 10.7106 9.56989 2.40102
92 1 -1.1104 12.3738 5.30074 3.84532
93 1 -1.1104 12.3057 11.0292 3.7373
94 1 -1.1104 9.43032 8.20942 1.03165
95 2 2.2208 7.9614 6.84651 2.4087
96 2 2.2208 8.11037 12.3562 2.4894
97 1 -1.1104 9.39588 8.15529 3.70734
98 2 2.2208 8.10338 9.53379 5.07802
99 1 -1.1104 9.55293 5.23793 1.02059
100 1 -1.1104 9.52294 11.2011 0.996255
102 1 -1.1104 9.40864 5.28867 3.85601
103 1 -1.1104 9.3569 10.9225 3.70141
263 1 -1.1104 12.3282 8.232 6.70482
135 1 -1.1104 12.3719 16.6849 9.43097
264 1 -1.1104 12.4575 5.40392 6.64241
267 1 -1.1104 9.45528 5.30504 6.66616
631 2 2.2208 7.9745 9.65623 -0.332534
118 1 -1.1104 6.70615 16.7017 6.62815
8348 2 2.2208 2.45512 -4.43831 8.01944
308 2 2.2208 5.25472 -1.71525 13.5968
106 2 2.2208 5.14244 17.9757 5.3062
107 1 -1.1104 0.91043 13.803 1.00659
109 1 -1.1104 1.18788 19.4531 1.08835
113 1 -1.1104 1.03354 13.8445 3.729
114 1 -1.1104 0.969037 19.4274 3.95779
116 1 -1.1104 1.02874 16.522 1.02102
119 2 2.2208 5.1187 15.299 2.43416
120 2 2.2208 5.42379 21.0429 2.44228
121 1 -1.1104 0.952743 16.6638 3.92961
123 1 -1.1104 3.66068 13.8812 1.00634
125 1 -1.1104 4.01979 19.497 1.1001
127 2 2.2208 2.52207 18.1154 2.48233
128 1 -1.1104 3.96895 13.8012 3.99881
129 1 -1.1104 3.76466 19.2744 3.98936
130 2 2.2208 2.424 15.2012 5.28514
131 2 2.2208 2.37596 20.6889 5.32669
132 1 -1.1104 3.7866 16.7297 1.07108
134 1 -1.1104 3.75018 16.5952 3.85757
139 1 -1.1104 6.5347 19.4725 3.80212
300 1 -1.1104 0.885925 19.5858 6.62142
140 1 -1.1104 6.56938 16.6965 1.0045
122 1 -1.1104 6.61089 16.6766 3.79845
126 1 -1.1104 3.8484 19.3504 6.85475
110 1 -1.1104 6.3454 13.8382 1.04561
133 1 -1.1104 3.80633 16.4894 6.67471
111 1 -1.1104 6.87949 13.9721 6.78143
143 1 -1.1104 12.3875 13.8027 6.59771
576 2 2.2208 2.43069 20.861 -0.265788
8935 2 2.2208 13.6703 6.84365 8.14923
306 2 2.2208 13.5122 20.8713 -0.429394
115 1 -1.1104 6.67709 13.6023 3.94131
138 1 -1.1104 6.86179 19.5357 1.00559
141 2 2.2208 10.8609 17.9618 5.09443
142 1 -1.1104 12.1423 13.8448 0.909274
144 1 -1.1104 12.1912 19.3586 0.759194
146 1 -1.1104 12.4139 13.8702 3.69079
147 1 -1.1104 12.4383 19.3043 4.02024
148 1 -1.1104 12.2409 16.6059 0.944681
150 2 2.2208 10.9447 15.2168 2.45892
152 1 -1.1104 12.4523 16.5886 3.99465
153 1 -1.1104 9.20513 14.0241 0.901056
155 1 -1.1104 9.37739 19.4092 4.02532
156 2 2.2208 7.86709 17.9954 2.48379
157 1 -1.1104 9.38086 13.8255 3.71739
158 2 2.2208 7.94442 15.1565 5.11027
159 2 2.2208 7.98422 20.7561 5.22288
160 1 -1.1104 9.33924 17.0222 1.1175
162 1 -1.1104 9.44146 16.5691 3.74046
161 1 -1.1104 9.44337 16.5267 6.40014
154 1 -1.1104 9.55214 13.6885 6.35907
8986 2 2.2208 13.6275 20.561 10.9201
171 1 -1.1104 3.82735 2.63751 6.60998
199 1 -1.1104 9.39282 13.8501 9.25998
51 2 2.2208 13.6612 -1.71183 5.26781
170 1 -1.1104 3.71805 -2.98236 6.66147
173 2 2.2208 5.25178 1.22122 10.6799
174 1 -1.1104 1.06391 -3.0361 12.2773
175 1 -1.1104 1.03023 2.67671 12.2519
178 1 -1.1104 0.878831 -3.14668 9.36744
179 1 -1.1104 0.954671 2.35206 9.36952
182 1 -1.1104 0.908729 -0.202008 12.3037
184 2 2.2208 5.29609 -1.62174 8.10185
186 1 -1.1104 0.979821 -0.400861 9.46041
188 1 -1.1104 3.76218 -3.03312 12.3125
189 1 -1.1104 3.82488 2.5461 12.2195
190 2 2.2208 2.4828 1.18576 8.01095
191 1 -1.1104 3.73947 -3.16801 9.46213
192 1 -1.1104 3.74079 2.56355 9.35769
193 2 2.2208 2.35322 -1.7086 10.7903
194 2 2.2208 2.47624 3.94638 10.8584
195 1 -1.1104 3.68873 -0.301647 11.9847
196 1 -1.1104 3.93507 -0.200262 9.22409
185 2 2.2208 5.22542 4.00165 7.99063
187 1 -1.1104 6.83525 -0.0547328 9.43258
8859 2 2.2208 13.6675 3.97836 10.864
9024 2 2.2208 13.5556 15.1774 10.8854
183 1 -1.1104 6.58346 -0.249588 12.1613
426 2 2.2208 2.41725 12.3731 13.7206
137 1 -1.1104 9.45339 19.3031 12.2714
9029 2 2.2208 -0.308307 9.522 2.45736
203 1 -1.1104 12.2589 -3.17085 6.73831
205 1 -1.1104 12.2523 -0.420474 6.58183
180 1 -1.1104 6.59951 -3.03812 9.38658
204 1 -1.1104 12.1241 2.47026 6.8088
176 1 -1.1104 6.54087 -2.86957 12.1829
177 1 -1.1104 6.59133 2.68848 12.353
181 1 -1.1104 6.66175 2.55428 9.39959
208 1 -1.1104 9.57503 -0.434337 6.57831
210 2 2.2208 10.8876 1.06683 10.846
211 1 -1.1104 12.3112 -3.13693 12.2578
212 1 -1.1104 12.1815 2.5238 12.2244
213 1 -1.1104 12.1553 -3.18105 9.49601
214 1 -1.1104 12.2713 2.40204 9.5636
215 1 -1.1104 12.3454 -0.301022 12.2241
216 2 2.2208 10.9385 -1.75142 7.99563
218 1 -1.1104 12.2989 -0.407638 9.42701
219 1 -1.1104 9.47309 -2.94408 12.169
220 1 -1.1104 9.31916 2.51701 12.256
221 2 2.2208 8.08803 1.04132 7.93185
222 1 -1.1104 9.39284 -3.00499 9.38786
223 1 -1.1104 9.5533 2.71662 9.35117
224 2 2.2208 8.02726 -1.54858 10.7969
225 2 2.2208 8.12163 4.0151 10.8724
226 1 -1.1104 9.50054 -0.371619 12.1859
227 1 -1.1104 9.52 -0.140159 9.52276
217 2 2.2208 10.8326 3.8746 8.07432
304 1 -1.1104 6.6092 16.3552 12.4225
200 1 -1.1104 9.45626 19.5309 9.64677
49 1 -1.1104 9.56375 16.6249 9.26593
228 2 2.2208 13.5626 1.09166 8.07345
65 1 -1.1104 6.7448 11.0664 6.53616
237 1 -1.1104 3.83699 5.3796 6.56949
233 1 -1.1104 6.58436 8.20192 6.54952
313 2 2.2208 -0.335654 1.23953 5.14091
238 2 2.2208 5.21828 6.95044 10.7662
239 2 2.2208 5.25864 12.2715 10.867
240 1 -1.1104 0.975884 8.15368 12.1771
242 1 -1.1104 0.929127 8.15347 9.3125
244 1 -1.1104 0.847439 5.32884 12.1578
245 1 -1.1104 1.11314 11.0799 12.2296
248 2 2.2208 5.31128 9.58063 8.05621
249 1 -1.1104 1.10796 5.30613 9.60005
250 1 -1.1104 1.11326 10.9878 9.52364
253 1 -1.1104 3.66071 8.18751 12.2104
254 2 2.2208 2.3383 6.71631 7.96393
255 2 2.2208 2.42183 12.4343 8.17757
256 1 -1.1104 3.75174 8.31449 9.45907
257 2 2.2208 2.36395 9.63296 10.84
258 1 -1.1104 3.79335 5.36209 12.2711
259 1 -1.1104 3.87141 10.9952 12.3079
260 1 -1.1104 3.92284 5.47369 9.37421
261 1 -1.1104 3.82492 10.9679 9.42844
246 1 -1.1104 6.70105 5.36979 12.2241
252 1 -1.1104 6.59289 11.0071 9.35498
247 1 -1.1104 6.7531 11.0887 12.2952
9030 2 2.2208 -0.389614 12.3827 5.25623
101 1 -1.1104 9.5344 10.942 6.48154
90 1 -1.1104 12.296 11.0002 6.59036
265 1 -1.1104 9.55452 8.13445 6.53972
9032 2 2.2208 13.6947 6.73973 2.38875
241 1 -1.1104 6.54013 8.24245 12.1963
243 1 -1.1104 6.74134 8.26784 9.45381
251 1 -1.1104 6.71611 5.39727 9.43403
262 1 -1.1104 9.35074 10.9814 9.44398
266 1 -1.1104 9.34654 5.54754 9.35395
268 1 -1.1104 9.57667 10.9484 12.1997
269 1 -1.1104 9.47637 5.37322 12.3309
270 2 2.2208 8.01313 9.65982 10.9365
271 1 -1.1104 9.29499 8.27961 9.44217
272 2 2.2208 8.01142 12.4282 7.9964
273 2 2.2208 8.03695 6.80802 7.90394
274 2 2.2208 10.7484 6.82786 10.8251
275 2 2.2208 10.7736 12.3563 10.766
276 1 -1.1104 12.208 8.15986 12.3007
277 1 -1.1104 12.1368 8.06482 9.44936
278 1 -1.1104 12.2025 5.4476 12.1361
279 1 -1.1104 12.3665 10.9665 12.2649
280 2 2.2208 10.8257 9.54131 8.15919
281 1 -1.1104 12.2292 5.25158 9.48586
282 1 -1.1104 12.3067 11.0326 9.26025
283 1 -1.1104 9.41638 8.18441 12.2528
136 1 -1.1104 9.42197 13.7552 12.2629
8724 2 2.2208 13.6467 3.92634 5.30094
82 1 -1.1104 12.3025 19.4643 9.5433
288 1 -1.1104 6.69345 13.6749 9.58224
105 2 2.2208 10.7147 20.8505 8.0925
124 1 -1.1104 3.96275 13.7 6.76768
117 1 -1.1104 1.19759 16.6896 6.64287
108 1 -1.1104 1.0278 13.8643 6.64603
202 2 2.2208 2.31494 15.164 10.9162
209 2 2.2208 2.32513 20.7479 10.9253
231 1 -1.1104 3.72736 16.4462 12.2146
284 1 -1.1104 3.8384 19.3499 12.4297
285 1 -1.1104 3.74233 13.8089 12.257
289 1 -1.1104 0.949775 19.3116 9.45866
290 1 -1.1104 0.875416 16.5708 9.50558
291 2 2.2208 5.23138 20.8091 8.11834
292 1 -1.1104 1.00897 13.7644 9.42099
293 2 2.2208 5.33297 15.2733 8.18654
296 1 -1.1104 1.08095 19.2713 12.2998
297 1 -1.1104 0.8246 13.7182 12.1704
298 2 2.2208 5.17516 17.953 11.0048
299 1 -1.1104 3.77698 19.3574 9.56987
301 2 2.2208 2.45896 17.9655 8.19058
302 1 -1.1104 3.99279 16.7163 9.51471
303 1 -1.1104 3.9078 13.7934 9.44296
305 1 -1.1104 0.947907 16.5633 12.2153
112 1 -1.1104 6.60743 19.403 6.51049
149 1 -1.1104 12.2399 16.9099 6.77116
294 1 -1.1104 6.64619 19.3065 12.356
287 1 -1.1104 6.82213 16.6337 9.56759
822 1 -1.1104 12.3412 19.8859 6.67622
50 1 -1.1104 12.3195 19.335 12.3665
52 2 2.2208 7.98887 20.7188 11.128
197 2 2.2208 8.13619 17.9835 8.06761
30 1 -1.1104 9.42707 16.5003 12.1918
81 1 -1.1104 12.1979 13.8323 9.58109
53 2 2.2208 8.10441 15.1356 10.8093
145 1 -1.1104 9.47357 19.2696 6.68992
27 1 -1.1104 12.1653 13.7963 12.432
26 2 2.2208 10.8269 17.9374 10.8786
8884 2 2.2208 -0.427899 3.96981 8.04052
428 2 2.2208 10.8777 9.57616 13.5868
311 2 2.2208 2.49043 6.85186 13.6566
8920 2 2.2208 -0.342693 15.2306 2.46021
632 2 2.2208 10.7871 12.5029 -0.54396
390 2 2.2208 10.759 3.90252 13.5506
571 2 2.2208 8.04704 -1.61854 -0.526377
349 2 2.2208 13.6367 1.14475 13.646
544 2 2.2208 7.96699 20.9875 -0.380994
453 2 2.2208 8.14801 6.83347 13.6658
577 2 2.2208 13.656 -1.59656 -0.336092
9044 2 2.2208 -0.35063 9.4975 13.6866
309 2 2.2208 2.40516 1.18433 13.5179
542 2 2.2208 2.3903 3.94825 -0.491673
307 2 2.2208 -0.464857 -1.71134 13.5896
9076 2 2.2208 -0.391951 18.0753 -0.375665
9288 2 2.2208 -0.423472 12.3189 -0.506348
630 2 2.2208 10.8855 6.68737 -0.284402
317 2 2.2208 5.18588 1.13365 -0.465437
310 2 2.2208 5.32845 3.9639 13.6007
316 2 2.2208 8.03699 17.7739 13.6159
318 2 2.2208 5.23439 1.2697 16.3794
319 1 -1.1104 1.11308 -3.17145 17.9591
320 1 -1.1104 1.15105 2.51349 17.9931
323 1 -1.1104 0.923188 -3.17999 15.0518
324 1 -1.1104 1.11214 2.51731 14.9296
329 1 -1.1104 1.10143 -0.390231 18.0684
331 2 2.2208 5.13583 -1.83968 19.2652
333 1 -1.1104 0.969628 -0.363397 15.1449
336 1 -1.1104 3.81917 -3.1313 17.8592
337 1 -1.1104 4.01141 2.56128 17.7197
338 2 2.2208 2.70813 1.16573 18.9578
339 1 -1.1104 3.85697 -2.99165 15.0547
341 1 -1.1104 3.82522 2.48718 14.9182
343 2 2.2208 2.37977 -1.82262 16.3441
344 2 2.2208 2.51739 3.94195 16.3891
345 1 -1.1104 3.84252 -0.281465 17.5869
346 1 -1.1104 3.84823 -0.222058 14.8293
347 1 -1.1104 3.95249 -0.0414273 20.3858
332 2 2.2208 5.25696 3.98136 19.2664
340 1 -1.1104 3.69804 -3.38114 20.5637
342 1 -1.1104 3.70276 2.66488 20.6285
454 2 2.2208 5.24624 15.0189 13.7888
328 1 -1.1104 6.59979 2.53865 20.6446
8547 2 2.2208 10.8133 -4.52493 16.4684
8435 2 2.2208 8.03939 -4.44873 24.8637
321 1 -1.1104 6.5783 -3.07059 17.8248
327 1 -1.1104 6.73394 2.606 15.099
322 1 -1.1104 6.71591 2.70208 17.8859
325 1 -1.1104 6.51299 -2.95101 15.1697
334 1 -1.1104 6.6485 -0.152434 14.9805
330 1 -1.1104 6.72316 -0.151739 17.7584
358 2 2.2208 10.8589 1.23656 16.5623
359 1 -1.1104 12.3363 -3.00495 17.8882
360 1 -1.1104 12.261 2.6529 17.8821
361 1 -1.1104 12.3861 -3.03373 14.9637
363 1 -1.1104 12.3308 2.49431 15.0177
365 1 -1.1104 12.3381 -0.16785 17.8405
366 2 2.2208 10.974 -1.66628 19.2259
367 2 2.2208 10.7762 3.92524 19.1502
368 1 -1.1104 12.2427 -0.328343 14.9403
370 1 -1.1104 9.52925 -3.3576 17.8396
371 1 -1.1104 9.42167 2.51312 17.8716
372 2 2.2208 8.05638 1.13576 19.1896
373 1 -1.1104 9.43819 -2.99351 15.1143
375 1 -1.1104 9.5364 2.58179 15.044
377 2 2.2208 8.02801 -1.54029 16.4087
378 2 2.2208 8.0225 4.0355 16.3448
379 1 -1.1104 9.50983 -0.317409 17.8768
380 1 -1.1104 9.40468 -0.293029 15.0934
381 1 -1.1104 9.57526 -0.159081 20.6802
376 1 -1.1104 9.33458 2.63645 20.6467
326 1 -1.1104 6.50455 -3.02292 20.6895
362 1 -1.1104 12.2545 -2.97091 20.5646
335 1 -1.1104 6.74398 -0.283061 20.5977
374 1 -1.1104 9.43616 -2.96076 20.7548
8468 2 2.2208 10.9124 -4.53033 27.7123
391 2 2.2208 5.26861 6.75918 16.4786
392 2 2.2208 5.23629 12.3852 16.4633
393 1 -1.1104 0.810204 8.07929 17.7945
395 1 -1.1104 1.11421 8.28901 14.9367
399 1 -1.1104 1.13552 5.34724 17.7343
400 1 -1.1104 0.894274 10.9613 17.9269
403 2 2.2208 5.28165 9.48726 19.2303
404 1 -1.1104 1.12272 5.34181 14.9495
406 1 -1.1104 0.9151 11.011 14.951
412 1 -1.1104 3.69613 8.26764 17.8981
413 2 2.2208 2.40495 6.75449 19.1474
414 2 2.2208 2.39828 12.3059 19.2609
415 1 -1.1104 3.87073 8.19404 15.0292
417 2 2.2208 2.28682 9.56427 16.4228
418 1 -1.1104 3.82418 5.43674 17.8636
419 1 -1.1104 3.81962 10.9352 17.8374
420 1 -1.1104 3.88028 5.48083 15.0219
422 1 -1.1104 3.81535 11.0566 15.0553
423 1 -1.1104 3.78236 10.9921 20.6986
421 1 -1.1104 3.81951 5.42527 20.6265
396 1 -1.1104 0.97059 8.06093 20.6086
405 1 -1.1104 1.01902 4.99944 20.6091
407 1 -1.1104 0.877997 10.842 20.6496
416 1 -1.1104 3.97207 8.20412 20.732
410 1 -1.1104 6.65385 10.9445 14.9691
9256 2 2.2208 -0.402936 17.9799 16.4681
8617 2 2.2208 5.32789 -4.52664 16.3913
8437 2 2.2208 10.7655 -4.40293 22.1452
9115 2 2.2208 13.4687 20.8222 22.1258
646 1 -1.1104 6.61245 13.8523 23.5002
397 1 -1.1104 6.65206 8.11002 15.0414
401 1 -1.1104 6.53975 5.48291 17.8671
394 1 -1.1104 6.69011 8.23202 17.7977
408 1 -1.1104 6.667 5.41755 14.9653
402 1 -1.1104 6.66281 11.0951 17.8258
429 2 2.2208 10.9288 6.66332 16.4117
430 2 2.2208 10.8349 12.4059 16.5212
431 1 -1.1104 12.2582 8.20835 17.9349
432 1 -1.1104 12.2726 8.15117 15.0615
434 1 -1.1104 12.421 5.30937 17.8705
435 1 -1.1104 12.2888 10.9935 17.7774
436 2 2.2208 10.8836 9.47313 19.3364
437 1 -1.1104 12.2152 5.37245 15.0497
439 1 -1.1104 12.2246 10.8069 15.0605
441 1 -1.1104 9.4056 8.16619 18.1668
442 2 2.2208 8.00152 6.73202 19.3756
443 2 2.2208 8.06206 12.372 19.309
444 1 -1.1104 9.56059 8.20058 15.1882
446 2 2.2208 8.1107 9.68625 16.5251
447 1 -1.1104 9.28834 5.31792 17.8587
448 1 -1.1104 9.4645 11.013 17.875
449 1 -1.1104 9.46629 5.41093 15.0157
451 1 -1.1104 9.4394 11.1018 15.0098
433 1 -1.1104 12.2802 8.09018 20.7304
409 1 -1.1104 6.67507 5.41797 20.8221
382 2 2.2208 8.02299 20.9506 22.1231
398 1 -1.1104 6.7007 8.22677 20.8546
440 1 -1.1104 12.3216 10.8184 20.8247
9112 2 2.2208 -0.389569 4.0154 19.0301
455 2 2.2208 5.19922 17.8238 16.529
456 1 -1.1104 0.819587 13.8473 17.7077
457 1 -1.1104 0.968513 19.441 17.8835
460 1 -1.1104 0.918095 13.8204 15.0128
462 1 -1.1104 1.01615 19.245 14.9534
468 1 -1.1104 0.94006 16.6959 17.9136
470 2 2.2208 5.24505 15.3247 19.3949
471 2 2.2208 5.06981 20.8401 19.4277
472 1 -1.1104 0.939382 16.5633 15.1036
476 1 -1.1104 3.66176 13.6622 17.9029
477 1 -1.1104 3.70626 19.3505 17.9086
478 2 2.2208 2.43799 18.0544 19.317
479 1 -1.1104 3.85425 13.7754 15.1711
481 1 -1.1104 3.81987 19.2218 15.2058
483 2 2.2208 2.35238 15.2197 16.4276
484 2 2.2208 2.32996 20.7161 16.5496
485 1 -1.1104 3.82034 16.5469 17.9448
486 1 -1.1104 3.96607 16.4308 15.1197
480 1 -1.1104 3.68205 13.8399 20.7004
487 1 -1.1104 3.85094 16.8144 20.7358
482 1 -1.1104 3.6325 19.5122 20.8972
463 1 -1.1104 1.00284 19.4604 20.6687
459 1 -1.1104 6.44989 19.3202 17.9375
466 1 -1.1104 6.68626 19.2337 15.1706
464 1 -1.1104 6.57859 13.585 15.1206
458 1 -1.1104 6.5329 13.9282 18.0123
573 2 2.2208 7.98608 18.1661 24.8607
461 1 -1.1104 0.992945 13.8953 20.6414
551 1 -1.1104 12.0595 19.3263 23.6215
9360 2 2.2208 -0.314394 6.66715 21.9871
546 2 2.2208 5.09196 -4.55858 22.0434
494 1 -1.1104 12.3001 13.6975 20.7153
9286 2 2.2208 -0.335692 9.54531 24.7981
469 1 -1.1104 6.76761 16.6413 17.8418
474 1 -1.1104 6.63973 16.3286 15.1308
490 2 2.2208 10.7887 17.9317 16.5065
491 1 -1.1104 12.1297 13.7246 17.9784
492 1 -1.1104 12.179 19.3781 17.8406
493 1 -1.1104 12.2149 13.7668 15.0717
495 1 -1.1104 12.2228 19.3374 15.1427
497 1 -1.1104 12.2866 16.5217 17.9022
498 2 2.2208 10.699 15.1882 19.2695
499 2 2.2208 10.7494 20.8527 19.252
500 1 -1.1104 12.2235 16.5011 15.2807
502 1 -1.1104 9.38798 13.799 17.8353
503 1 -1.1104 9.31546 19.3026 17.9488
504 2 2.2208 8.02814 18.0252 19.4049
505 1 -1.1104 9.31133 13.8293 15.126
507 1 -1.1104 9.36486 19.4999 15.0496
509 2 2.2208 8.02929 15.1133 16.5996
510 2 2.2208 7.8162 20.5193 16.5897
511 1 -1.1104 9.4627 16.4901 17.9244
512 1 -1.1104 9.50633 16.7352 15.076
506 1 -1.1104 9.38059 13.7722 20.7447
513 1 -1.1104 9.3002 16.586 20.7214
496 1 -1.1104 12.1673 19.3729 20.8023
501 1 -1.1104 12.1245 16.63 20.7115
572 2 2.2208 8.11183 3.91824 27.6406
383 1 -1.1104 9.27643 16.7673 23.4426
9285 2 2.2208 13.542 18.0329 24.8394
9215 2 2.2208 13.6598 18.0586 19.3543
9261 2 2.2208 -0.391397 12.5172 22.0486
488 2 2.2208 2.40374 17.9305 13.7271
9259 2 2.2208 13.7166 12.4832 24.794
580 1 -1.1104 12.2483 13.8581 26.2007
9069 2 2.2208 -0.394965 18.0376 21.9849
518 2 2.2208 5.25942 0.924801 22.0098
519 1 -1.1104 0.526504 -3.22984 23.571
520 1 -1.1104 1.16629 2.5137 23.4284
523 1 -1.1104 1.06222 -3.02859 26.5014
524 1 -1.1104 1.11745 2.52603 26.2976
528 2 2.2208 5.05036 -1.63265 24.7588
529 2 2.2208 5.20986 4.02086 24.9468
530 1 -1.1104 1.14081 -0.328242 25.8877
532 1 -1.1104 3.94297 -3.29409 23.6181
533 1 -1.1104 3.84658 2.7164 23.4913
534 2 2.2208 2.51063 1.25135 24.9442
535 1 -1.1104 3.90949 -3.09672 26.4212
536 1 -1.1104 3.85701 2.62735 26.2708
538 1 -1.1104 3.90827 0.0687274 23.6294
539 1 -1.1104 3.78683 -0.110944 26.4622
550 3 0 0.943696 -0.35392 21.7883
537 2 2.2208 2.55351 4.0651 22.1899
514 2 2.2208 10.8847 17.8896 27.6478
521 1 -1.1104 6.67607 -3.04978 23.4234
364 1 -1.1104 12.2495 2.52748 20.6199
531 1 -1.1104 6.59552 -0.225653 26.219
369 1 -1.1104 12.3983 -0.24897 20.5861
525 1 -1.1104 6.71183 -3.00165 26.0883
526 1 -1.1104 6.5495 2.56045 26.2238
527 1 -1.1104 6.70621 -0.283332 23.3885
522 1 -1.1104 6.65788 2.46819 23.3895
552 2 2.2208 10.9328 1.17179 22.1627
553 1 -1.1104 12.2886 -2.9651 23.4812
554 1 -1.1104 12.3613 2.6198 23.5741
555 1 -1.1104 12.3583 -3.05733 26.3873
556 1 -1.1104 12.2376 2.55198 26.4439
557 1 -1.1104 12.1608 -0.271107 23.6144
558 2 2.2208 10.8042 -1.66708 24.8893
559 2 2.2208 10.767 3.9027 24.9419
560 1 -1.1104 12.4436 -0.213151 26.4361
561 1 -1.1104 9.6234 -2.93177 23.5093
562 1 -1.1104 9.53315 2.55978 23.5544
563 2 2.2208 8.05392 1.14486 24.8115
564 1 -1.1104 9.45598 -2.97805 26.2232
565 1 -1.1104 9.29283 2.53736 26.2677
566 2 2.2208 8.09303 -1.70141 22.0923
567 2 2.2208 8.02328 3.91447 22.1007
568 1 -1.1104 9.43295 -0.0577113 23.4915
569 1 -1.1104 9.5374 -0.139209 26.2319
350 2 2.2208 13.7348 3.84326 16.4252
489 2 2.2208 13.5736 3.90766 22.1375
411 1 -1.1104 6.6339 11.0537 20.6103
9144 2 2.2208 13.5799 6.74737 13.6956
609 1 -1.1104 12.1681 16.5197 23.4756
611 2 2.2208 10.8117 20.8845 24.9696
581 2 2.2208 5.29578 6.87227 22.2226
582 2 2.2208 5.24292 12.4537 22.1077
583 1 -1.1104 1.07426 8.08388 23.3182
585 1 -1.1104 1.12416 8.2395 26.2792
587 1 -1.1104 1.02058 5.35439 23.5359
588 1 -1.1104 1.01361 11.0547 23.3257
591 2 2.2208 5.20754 9.65339 24.9248
592 1 -1.1104 0.962424 5.24424 26.1587
593 1 -1.1104 0.980982 10.8864 26.2631
596 1 -1.1104 3.77031 8.31389 23.4926
597 2 2.2208 2.40027 6.82875 24.8404
598 2 2.2208 2.36973 12.4433 25.0102
599 1 -1.1104 3.80553 8.24155 26.3385
600 2 2.2208 2.43511 9.5968 22.067
601 1 -1.1104 3.94146 5.46698 23.575
602 1 -1.1104 3.8249 11.0737 23.5312
603 1 -1.1104 3.85978 5.49893 26.1984
604 1 -1.1104 3.77371 11.1461 26.3786
590 1 -1.1104 6.54415 10.9592 23.445
595 1 -1.1104 6.54226 11.0095 26.3602
584 1 -1.1104 6.57895 8.10862 23.5612
385 1 -1.1104 9.35841 19.4097 26.6596
452 1 -1.1104 9.39712 10.9381 20.7414
445 1 -1.1104 9.39695 8.20251 20.8386
450 1 -1.1104 9.43623 5.38846 20.4634
589 1 -1.1104 6.58385 5.35767 23.5609
438 1 -1.1104 12.1792 5.32625 20.6165
586 1 -1.1104 6.59553 8.18236 26.3482
594 1 -1.1104 6.6272 5.36971 26.272
612 1 -1.1104 9.32059 11.1143 26.435
613 1 -1.1104 9.47076 5.32921 26.3777
614 1 -1.1104 9.58816 10.9972 23.4998
615 1 -1.1104 9.37361 5.37924 23.4986
616 2 2.2208 8.04623 9.5856 22.1388
617 1 -1.1104 9.39394 8.22726 26.3127
618 2 2.2208 7.97686 12.3884 24.7969
619 2 2.2208 8.03472 6.77399 24.948
620 2 2.2208 10.8352 6.73882 22.1479
621 2 2.2208 10.9662 12.3542 22.1379
622 1 -1.1104 12.3835 8.10859 23.6044
623 1 -1.1104 12.2475 8.15367 26.3957
624 1 -1.1104 12.2322 5.29446 23.5572
625 1 -1.1104 12.2897 10.9818 23.6002
626 2 2.2208 10.9283 9.52174 25.0372
627 1 -1.1104 12.0843 5.29795 26.3486
628 1 -1.1104 12.2373 10.9706 26.4891
629 1 -1.1104 9.58606 8.11111 23.5572
354 2 2.2208 7.94782 15.2557 22.0731
467 1 -1.1104 6.59186 19.5362 20.7745
475 1 -1.1104 6.63353 16.6957 20.6724
473 1 -1.1104 1.03598 16.6681 20.7268
637 1 -1.1104 6.63656 13.6258 26.2128
543 1 -1.1104 6.47361 19.668 26.3827
351 2 2.2208 2.4851 15.3158 22.0258
353 2 2.2208 2.31651 20.8651 22.2058
355 1 -1.1104 3.94434 16.7321 23.5211
356 1 -1.1104 1.16957 16.8414 23.3904
424 1 -1.1104 3.70361 14.0084 26.2027
515 2 2.2208 2.32681 18.0731 24.9108
516 1 -1.1104 3.7041 16.6327 26.2643
540 1 -1.1104 3.74853 19.6073 26.3807
636 1 -1.1104 3.7863 19.6468 23.6258
638 1 -1.1104 3.80271 13.9437 23.3667
640 1 -1.1104 0.907979 19.4357 26.2742
641 1 -1.1104 0.927884 16.5888 26.4423
642 1 -1.1104 0.894095 13.7545 26.2942
644 2 2.2208 5.08011 20.9471 25.0137
645 2 2.2208 5.16847 15.2163 24.8018
647 1 -1.1104 1.00818 19.5335 23.5032
648 1 -1.1104 0.982755 13.8968 23.5297
649 2 2.2208 5.22742 18.1483 22.1773
357 1 -1.1104 6.64494 16.5606 23.5726
643 1 -1.1104 6.52441 19.3408 23.5517
639 1 -1.1104 6.61408 16.5953 26.2601
9213 2 2.2208 13.7183 15.1515 16.5498
9145 2 2.2208 13.7237 9.55679 16.4647
508 1 -1.1104 9.34106 19.5049 20.8201
465 1 -1.1104 6.58824 13.8195 20.7603
384 1 -1.1104 9.34621 16.5569 26.2788
610 2 2.2208 10.8307 15.1775 24.8472
549 1 -1.1104 12.367 13.8469 23.4176
608 1 -1.1104 12.1616 19.3213 26.2076
387 1 -1.1104 9.44826 13.7698 26.1012
634 1 -1.1104 9.44048 14.0115 23.3661
635 1 -1.1104 9.45599 19.598 23.5673
548 2 2.2208 10.7764 17.9856 22.1217
633 1 -1.1104 12.1866 16.6299 26.2525
574 2 2.2208 2.44662 15.1622 27.6936
575 2 2.2208 5.34479 18.0672 27.7428
517 2 2.2208 10.7992 15.2108 13.7548
9042 2 2.2208 13.6991 17.9721 13.8178
8363 2 2.2208 2.49225 -4.58912 13.6792
427 2 2.2208 8.06409 12.4782 13.715
607 2 2.2208 5.20563 12.4351 27.699
606 2 2.2208 2.50861 9.62498 27.7661
312 2 2.2208 10.9055 20.6453 13.7578
389 2 2.2208 10.9183 -1.69832 13.6148
605 2 2.2208 5.22336 6.63927 27.6696
9282 2 2.2208 13.6818 15.2587 27.6198
9291 2 2.2208 13.607 3.93182 27.6619
425 2 2.2208 5.22051 9.6677 13.6269
352 2 2.2208 7.94559 15.1841 27.6751
541 2 2.2208 2.36703 -1.55877 27.6628
315 2 2.2208 5.20701 20.7202 13.7423
545 2 2.2208 5.2001 -4.41231 27.6867
570 2 2.2208 10.9596 1.06738 27.7216
650 2 2.2208 5.16452 23.58 5.22551
651 2 2.2208 5.07664 29.2985 5.26417
652 1 -1.1104 0.800657 25.1724 0.986899
653 1 -1.1104 0.977874 25.1268 3.77288
654 1 -1.1104 1.12692 22.4098 1.08481
655 1 -1.1104 0.937451 27.9369 0.971471
656 2 2.2208 5.00919 26.3561 2.51148
657 1 -1.1104 1.22849 22.2669 3.98591
658 1 -1.1104 1.0504 27.8258 3.74726
659 1 -1.1104 3.57608 25.0271 1.05669
660 2 2.2208 2.40767 23.5896 2.46347
661 2 2.2208 2.28189 29.2683 2.4355
662 1 -1.1104 3.67564 24.9926 3.93028
663 2 2.2208 2.34706 26.4273 5.21945
664 1 -1.1104 3.90916 22.3075 1.09715
665 1 -1.1104 3.60157 27.756 0.908952
666 1 -1.1104 3.89302 22.1376 3.81755
667 1 -1.1104 3.77273 27.8701 3.79971
672 1 -1.1104 6.44176 24.9573 3.9239
673 1 -1.1104 6.73372 22.4154 1.02309
676 1 -1.1104 6.54891 27.8743 3.84676
671 1 -1.1104 6.51815 25.0543 1.13972
674 1 -1.1104 6.6073 28.0013 1.08129
795 1 -1.1104 3.8532 22.2694 6.60832
793 1 -1.1104 6.73278 27.8725 6.62781
968 2 2.2208 5.11873 32.1118 13.5827
788 1 -1.1104 1.10286 25.1001 6.68062
790 1 -1.1104 1.09362 22.3227 6.78668
796 1 -1.1104 3.82221 27.795 6.68869
970 2 2.2208 2.36508 34.8524 13.6487
694 2 2.2208 13.7698 26.2351 5.29933
675 1 -1.1104 6.99748 22.2351 3.75712
677 2 2.2208 10.9457 29.18 5.14158
678 1 -1.1104 12.3252 24.9846 0.910582
679 1 -1.1104 12.5777 24.8681 3.62339
680 1 -1.1104 12.3953 22.3398 1.13684
681 1 -1.1104 12.3065 27.6798 1.03842
682 2 2.2208 11.0392 26.2888 2.4626
683 1 -1.1104 12.3959 27.7727 3.79841
684 1 -1.1104 9.39734 25.027 0.78919
685 2 2.2208 8.16676 23.8465 2.31216
686 2 2.2208 7.92791 29.3257 2.40941
687 1 -1.1104 9.34946 25.0706 3.65567
688 2 2.2208 7.95461 26.5274 5.08554
689 1 -1.1104 9.29534 22.2911 1.03631
690 1 -1.1104 9.34914 28.0065 0.995954
691 1 -1.1104 9.39681 27.8904 3.88472
151 3 0 10.9153 22.0796 4.14389
1365 1 -1.1104 9.55719 47.4877 3.75901
789 1 -1.1104 6.88805 25.1197 6.63974
823 1 -1.1104 12.2442 27.8236 6.70797
821 1 -1.1104 12.3859 24.9249 6.76799
1049 2 2.2208 13.5071 46.0593 13.5431
961 2 2.2208 13.5648 34.8702 7.97125
698 2 2.2208 5.24711 34.8548 5.27535
699 1 -1.1104 0.887545 30.7461 1.01163
700 1 -1.1104 1.0919 36.3919 1.04597
702 1 -1.1104 1.04048 30.7559 3.73335
703 1 -1.1104 0.94725 36.3161 4.02159
705 1 -1.1104 0.999131 33.5697 0.991137
706 2 2.2208 5.13843 32.1993 2.42372
707 2 2.2208 5.12987 37.7677 2.36736
708 1 -1.1104 1.03877 33.437 3.68254
710 1 -1.1104 3.76656 30.7373 0.860379
711 1 -1.1104 3.74121 36.3663 0.83957
712 2 2.2208 2.22458 34.9865 2.3865
713 1 -1.1104 3.70195 30.6353 3.87104
714 1 -1.1104 3.80903 36.2841 3.75853
715 2 2.2208 2.51686 32.0548 5.22802
716 2 2.2208 2.39761 37.6328 5.37956
717 1 -1.1104 3.77312 33.4409 1.09373
718 1 -1.1104 3.65939 33.5586 3.83517
844 1 -1.1104 1.08198 30.6343 6.56468
720 1 -1.1104 6.51336 30.7248 3.76371
709 1 -1.1104 6.4489 33.4396 3.85028
719 1 -1.1104 6.52787 30.7555 1.0176
701 1 -1.1104 6.66965 36.3418 0.953703
787 2 2.2208 13.6421 40.5503 2.42002
850 1 -1.1104 3.84458 30.632 6.76621
852 1 -1.1104 3.99583 33.4142 6.6036
851 1 -1.1104 3.81373 36.249 6.59412
848 1 -1.1104 1.13256 33.3213 6.57071
1313 1 -1.1104 6.57881 47.5156 3.8348
704 1 -1.1104 6.67179 36.3893 3.84564
721 1 -1.1104 6.4479 33.6978 1.1899
846 1 -1.1104 6.64332 30.425 6.68927
722 2 2.2208 10.6908 34.7169 5.28869
723 1 -1.1104 12.3205 30.6806 1.12841
724 1 -1.1104 12.1927 36.2357 1.14378
725 1 -1.1104 12.3061 30.6592 3.76237
726 1 -1.1104 12.1801 36.1822 3.91534
727 1 -1.1104 12.0733 33.3563 0.948741
728 2 2.2208 10.7937 32.058 2.5069
729 2 2.2208 10.8825 37.669 2.47426
730 1 -1.1104 12.2275 33.4442 3.84266
731 1 -1.1104 9.58604 30.6737 0.921763
732 1 -1.1104 9.49319 36.2888 0.88414
733 2 2.2208 7.85954 34.9196 2.35315
734 1 -1.1104 9.35459 30.5562 3.83685
735 1 -1.1104 9.40046 36.1586 3.64301
736 2 2.2208 7.99019 31.928 5.28699
737 2 2.2208 8.03164 37.6612 5.13372
738 1 -1.1104 9.20408 33.47 1.08051
739 1 -1.1104 9.31535 33.3919 3.87875
849 1 -1.1104 6.60151 33.3057 6.68157
881 1 -1.1104 9.55706 30.3586 6.58151
878 1 -1.1104 12.4092 30.4895 6.51763
883 1 -1.1104 9.27573 33.2092 6.84415
847 1 -1.1104 6.7108 36.2165 6.62367
880 1 -1.1104 12.0526 33.3237 6.58227
958 2 2.2208 13.5436 26.3302 11.0648
741 2 2.2208 5.24343 40.3966 5.26367
742 2 2.2208 5.1545 46.1312 5.10968