ITEM: TIMESTEP
40000
ITEM: NUMBER OF ATOMS
17700
ITEM: BOX BOUNDS pp pp pp
-3.7130533931388349e-01 2.7711305339313991e+01
-4.5537798312330731e+00 3.3263377983123166e+02
-3.7795356450273188e-01 2.7717953564502043e+01
ITEM: ATOMS id type q x y z
1 2 2.2208 5.1999 0.997946 5.29563
2 1 -1.1104 0.931868 -3.27439 1.20588
3 1 -1.1104 1.01979 2.47202 1.29181
6 1 -1.1104 0.916824 -3.08943 3.96
7 1 -1.1104 0.87587 2.39344 3.94788
10 1 -1.1104 0.889959 -0.526222 0.930979
12 2 2.2208 5.10931 -1.92173 2.43663
13 2 2.2208 5.15498 3.83316 2.54548
14 1 -1.1104 0.881768 -0.16153 3.78545
16 1 -1.1104 3.85659 -3.28308 1.12018
17 1 -1.1104 3.8205 2.3271 1.1915
18 2 2.2208 2.31852 1.10523 2.59061
19 1 -1.1104 3.74072 -3.30752 3.86356
20 1 -1.1104 3.68177 2.37069 4.08957
21 2 2.2208 2.32899 -1.77454 5.34636
22 2 2.2208 2.28601 3.80939 5.36481
23 1 -1.1104 3.65097 -0.526291 1.22469
24 1 -1.1104 3.75484 -0.452451 3.97212
8 1 -1.1104 6.56953 -2.98328 3.85988
15 1 -1.1104 6.61189 -0.345292 3.77668
9 1 -1.1104 6.57757 2.47266 3.85438
11 1 -1.1104 6.4637 -0.307377 1.0738
5 1 -1.1104 6.70842 2.41719 0.948295
4 1 -1.1104 6.62744 -3.18669 1.09924
8940 2 2.2208 13.4785 9.48024 10.8285
230 2 2.2208 8.03455 -4.45268 8.01356
574 2 2.2208 2.38696 15.0949 -0.317903
8752 2 2.2208 -0.348222 0.982505 10.9494
31 2 2.2208 10.7162 1.05497 5.28486
32 1 -1.1104 12.063 -3.21835 1.12837
33 1 -1.1104 12.2002 2.47592 1.09008
34 1 -1.1104 12.0728 -3.27175 3.86548
35 1 -1.1104 12.2454 2.45805 3.98911
36 1 -1.1104 12.2487 -0.209967 1.05652
37 2 2.2208 10.6355 -1.72387 2.44221
38 2 2.2208 10.823 3.92065 2.46259
39 1 -1.1104 12.1679 -0.334292 3.76614
40 1 -1.1104 9.36668 -3.14852 0.954999
41 1 -1.1104 9.46059 2.56563 0.94211
42 2 2.2208 8.03872 1.12708 2.55323
43 1 -1.1104 9.4943 -3.07117 3.8673
44 1 -1.1104 9.37301 2.49766 4.01292
45 2 2.2208 7.89981 -1.70405 5.16747
46 2 2.2208 7.95528 3.87262 5.36174
47 1 -1.1104 9.33119 -0.357797 1.11747
48 1 -1.1104 9.33724 -0.365652 3.94455
8724 2 2.2208 13.5514 3.8308 5.29277
51 2 2.2208 13.5299 -1.70833 5.1805
207 1 -1.1104 9.40644 2.56857 6.85031
206 1 -1.1104 9.42674 -3.14905 6.62443
203 1 -1.1104 12.2504 -3.17303 6.63272
208 1 -1.1104 9.37672 -0.34788 6.72083
81 1 -1.1104 12.3429 13.6548 9.57849
541 2 2.2208 2.47866 -1.88785 -0.22775
605 2 2.2208 5.16495 6.68775 -0.167278
54 2 2.2208 5.10681 6.65495 5.31401
55 2 2.2208 5.22755 12.2682 5.39422
56 1 -1.1104 0.834548 8.00708 1.17919
58 1 -1.1104 1.06765 8.23586 3.93651
60 1 -1.1104 0.882519 5.28061 1.11032
61 1 -1.1104 0.943147 10.8576 1.07624
66 2 2.2208 5.158 9.39444 2.57894
67 1 -1.1104 1.15201 5.28677 3.98418
68 1 -1.1104 1.04677 10.8241 4.11416
71 1 -1.1104 3.71105 7.99857 1.18248
72 2 2.2208 2.35142 6.58745 2.61051
73 2 2.2208 2.43077 12.1364 2.5705
74 1 -1.1104 3.73189 7.98713 4.00255
75 2 2.2208 2.42439 9.42452 5.40899
76 1 -1.1104 3.76466 5.21261 1.25803
77 1 -1.1104 3.70586 10.7892 1.2539
79 1 -1.1104 3.85822 5.17262 3.93144
80 1 -1.1104 3.95557 10.8029 3.98698
70 1 -1.1104 6.77276 11.0013 3.97019
69 1 -1.1104 6.62569 5.1864 3.89194
57 1 -1.1104 6.6863 8.18543 1.16471
64 1 -1.1104 6.54243 11.011 1.19789
59 1 -1.1104 6.58278 8.12203 3.89732
63 1 -1.1104 6.57526 5.35225 1.1297
232 1 -1.1104 0.771105 8.03359 6.87913
236 1 -1.1104 3.75968 8.12895 6.75718
606 2 2.2208 2.25872 9.44333 -0.278858
65 1 -1.1104 6.60385 10.6338 6.71915
631 2 2.2208 8.06912 9.53758 -0.252534
8919 2 2.2208 -0.234827 20.5486 2.51006
84 2 2.2208 10.7685 6.63023 5.29584
85 2 2.2208 10.7205 12.2876 5.23745
86 1 -1.1104 12.2466 7.96128 1.08133
87 1 -1.1104 12.2566 8.09904 3.94789
88 1 -1.1104 12.3031 5.29563 1.13185
89 1 -1.1104 12.1791 10.8673 1.2299
91 2 2.2208 10.9182 9.43931 2.55293
92 1 -1.1104 12.131 5.30039 3.82974
93 1 -1.1104 12.1879 10.8943 4.11809
94 1 -1.1104 9.53517 8.09969 1.10745
95 2 2.2208 7.93097 6.78662 2.50283
96 2 2.2208 7.97004 12.3725 2.45257
97 1 -1.1104 9.36109 8.06663 3.91608
98 2 2.2208 8.03834 9.47978 5.25607
99 1 -1.1104 9.30712 5.4289 1.16865
100 1 -1.1104 9.47626 10.9463 1.17082
102 1 -1.1104 9.42645 5.22277 3.8403
103 1 -1.1104 9.51284 10.808 3.89443
8753 2 2.2208 13.5898 9.37419 5.43312
9031 2 2.2208 13.4697 12.2465 2.49862
263 1 -1.1104 12.1874 7.88458 6.72051
8348 2 2.2208 2.32661 -4.56273 8.07392
90 1 -1.1104 12.2752 10.7366 6.85453
632 2 2.2208 10.7816 12.361 -0.248557
8351 2 2.2208 10.6714 -4.55342 10.8921
106 2 2.2208 5.1569 17.8252 5.44626
107 1 -1.1104 1.10711 13.6085 1.26035
109 1 -1.1104 1.05827 19.2165 1.0812
113 1 -1.1104 0.904625 13.5302 3.90149
114 1 -1.1104 1.03627 19.2612 3.8767
116 1 -1.1104 1.06515 16.4011 1.06344
119 2 2.2208 5.01446 15.0364 2.58784
120 2 2.2208 5.27801 20.7738 2.46917
121 1 -1.1104 1.02261 16.4517 3.90437
123 1 -1.1104 3.90842 13.6684 1.00742
125 1 -1.1104 3.9345 19.1986 1.2887
127 2 2.2208 2.36503 17.7892 2.53472
128 1 -1.1104 3.64138 13.7316 3.95588
129 1 -1.1104 3.66812 19.297 4.11298
130 2 2.2208 2.19865 15.0273 5.24982
131 2 2.2208 2.37916 20.6003 5.39018
132 1 -1.1104 3.78368 16.4794 0.934177
134 1 -1.1104 3.79096 16.4687 3.90254
139 1 -1.1104 6.32524 19.3642 4.04696
140 1 -1.1104 6.61566 16.7634 1.08159
122 1 -1.1104 6.6341 16.4792 3.97315
115 1 -1.1104 6.44339 13.7173 3.81675
108 1 -1.1104 0.819012 13.6214 6.71263
110 1 -1.1104 6.67121 13.7964 1.04526
300 1 -1.1104 0.907799 19.1011 6.70666
126 1 -1.1104 3.72847 19.0851 6.86973
133 1 -1.1104 3.76282 16.2744 6.77454
9024 2 2.2208 13.6077 15.1141 10.9883
8346 2 2.2208 7.94797 -4.43444 2.41968
49 1 -1.1104 9.35872 16.4479 9.52931
138 1 -1.1104 7.03487 19.5124 1.34531
8822 2 2.2208 13.5898 15.0682 5.27202
9027 2 2.2208 13.5568 1.08357 2.52701
141 2 2.2208 10.8185 17.9373 5.13535
142 1 -1.1104 12.1461 13.6619 1.15894
144 1 -1.1104 12.2211 19.1421 0.968308
146 1 -1.1104 12.1208 13.7639 3.95304
147 1 -1.1104 12.4841 19.1593 3.96006
148 1 -1.1104 12.5325 16.3248 1.24762
150 2 2.2208 10.8087 15.2695 2.46943
152 1 -1.1104 12.1333 16.3718 4.06111
153 1 -1.1104 9.33204 13.8627 1.0372
155 1 -1.1104 9.12925 19.3155 3.95962
156 2 2.2208 7.74649 17.866 2.75255
157 1 -1.1104 9.22191 13.6151 3.84375
158 2 2.2208 7.99831 15.0108 5.34294
159 2 2.2208 7.91821 20.6447 5.4675
160 1 -1.1104 9.48913 16.8179 1.05735
162 1 -1.1104 9.41096 16.5215 3.90331
154 1 -1.1104 9.17189 13.6872 6.81074
9025 2 2.2208 13.5916 17.797 8.13204
171 1 -1.1104 3.84234 2.41742 6.69906
170 1 -1.1104 3.79127 -2.91069 6.72375
172 1 -1.1104 3.93639 -0.2019 6.86309
166 1 -1.1104 6.68832 -3.21223 6.67918
169 1 -1.1104 6.59732 -0.376538 6.70713
164 1 -1.1104 0.863796 -3.15026 6.75698
167 1 -1.1104 6.58334 2.43936 6.72646
168 1 -1.1104 0.97429 -0.373277 6.61946
165 1 -1.1104 0.907359 2.32501 6.87291
173 2 2.2208 5.26694 0.972083 10.9782
174 1 -1.1104 0.922462 -3.22301 12.4099
175 1 -1.1104 1.08591 2.4463 12.4099
178 1 -1.1104 1.02359 -3.18368 9.49342
179 1 -1.1104 1.01222 2.40473 9.69506
182 1 -1.1104 0.900988 -0.431369 12.3778
184 2 2.2208 5.19641 -1.75574 8.20748
186 1 -1.1104 0.872989 -0.362804 9.48718
188 1 -1.1104 3.7586 -3.11882 12.355
189 1 -1.1104 3.85365 2.3651 12.3672
190 2 2.2208 2.30195 1.03259 8.13972
191 1 -1.1104 3.83016 -3.25556 9.57108
192 1 -1.1104 3.82568 2.37421 9.52326
193 2 2.2208 2.3398 -1.91313 11.0488
194 2 2.2208 2.49551 3.73958 11.0374
195 1 -1.1104 3.83022 -0.347611 12.4651
196 1 -1.1104 3.80298 -0.33922 9.62757
185 2 2.2208 5.15341 3.86088 8.16357
176 1 -1.1104 6.51653 -2.98553 12.3345
183 1 -1.1104 6.81508 -0.357985 12.3909
181 1 -1.1104 6.64486 2.55726 9.55092
180 1 -1.1104 6.71759 -3.16326 9.51377
187 1 -1.1104 6.56157 -0.348304 9.53237
177 1 -1.1104 6.6634 2.45 12.4673
607 2 2.2208 5.16286 12.2668 -0.175717
205 1 -1.1104 12.3206 -0.318834 6.71794
204 1 -1.1104 12.1942 2.52999 6.8529
229 2 2.2208 13.6387 -1.78884 10.8957
8859 2 2.2208 13.6907 3.95409 10.9568
228 2 2.2208 13.6649 1.01749 8.14114
210 2 2.2208 10.9983 1.01598 11.0385
211 1 -1.1104 12.0241 -3.17103 12.3228
212 1 -1.1104 12.4213 2.50474 12.3877
213 1 -1.1104 12.2369 -3.02978 9.33784
214 1 -1.1104 12.3998 2.46724 9.639
215 1 -1.1104 12.3735 -0.393805 12.3146
216 2 2.2208 10.8824 -1.81413 8.06709
218 1 -1.1104 12.2208 -0.234574 9.60349
219 1 -1.1104 9.22133 -3.23341 12.3035
220 1 -1.1104 9.56498 2.30434 12.2902
221 2 2.2208 8.15421 1.03613 8.21663
222 1 -1.1104 9.46877 -3.07215 9.4927
223 1 -1.1104 9.49671 2.73434 9.60735
224 2 2.2208 8.13847 -1.66306 10.9914
225 2 2.2208 7.97309 3.86999 10.973
226 1 -1.1104 9.60795 -0.319337 12.4927
227 1 -1.1104 9.4669 -0.206179 9.56614
217 2 2.2208 10.8899 3.85861 8.26009
571 2 2.2208 8.03267 -1.77144 -0.404089
82 1 -1.1104 12.291 19.4037 9.45595
78 1 -1.1104 3.86616 10.9493 6.82405
233 1 -1.1104 6.45667 7.982 6.63404
235 1 -1.1104 6.40668 5.241 6.72961
62 1 -1.1104 1.05335 10.9018 6.76707
237 1 -1.1104 3.65805 5.25196 6.84022
234 1 -1.1104 0.94321 5.34901 6.86386
238 2 2.2208 5.22511 6.59443 11.1023
239 2 2.2208 5.19697 12.2546 10.8727
240 1 -1.1104 0.965639 8.11022 12.4472
242 1 -1.1104 1.00696 8.0335 9.59712
244 1 -1.1104 1.07739 5.27546 12.5259
245 1 -1.1104 1.03666 10.8345 12.4035
248 2 2.2208 5.11371 9.40271 8.23435
249 1 -1.1104 1.01614 5.23193 9.55747
250 1 -1.1104 0.864957 10.7347 9.68434
253 1 -1.1104 3.73579 7.86788 12.3867
254 2 2.2208 2.34328 6.67084 8.21248
255 2 2.2208 2.42808 12.1941 8.03994
256 1 -1.1104 3.77182 7.9696 9.66054
257 2 2.2208 2.33268 9.36116 11.0338
258 1 -1.1104 3.89257 5.18314 12.4871
259 1 -1.1104 3.81262 10.7891 12.4286
260 1 -1.1104 3.77782 5.13831 9.66016
261 1 -1.1104 3.85332 10.8665 9.53328
247 1 -1.1104 6.61096 11.0646 12.4227
243 1 -1.1104 6.55773 7.89319 9.58205
246 1 -1.1104 6.48408 5.32812 12.427
241 1 -1.1104 6.42346 8.24013 12.4554
252 1 -1.1104 6.54892 10.8076 9.6088
251 1 -1.1104 6.47532 5.2315 9.60461
9029 2 2.2208 -0.394191 9.40199 2.47668
267 1 -1.1104 9.29074 5.3949 6.62904
264 1 -1.1104 12.1506 5.15035 6.59223
265 1 -1.1104 9.42833 8.13128 6.83394
8936 2 2.2208 13.5505 12.1276 8.13575
575 2 2.2208 5.18727 17.9275 -0.318622
8935 2 2.2208 13.5827 6.57534 8.11337
101 1 -1.1104 9.32033 10.9035 6.64064
262 1 -1.1104 9.32998 10.8621 9.52752
266 1 -1.1104 9.41281 5.38267 9.44144
268 1 -1.1104 9.47574 10.6642 12.1764
269 1 -1.1104 9.48323 5.09489 12.3063
270 2 2.2208 7.84328 9.35654 11.0235
271 1 -1.1104 9.33605 8.14332 9.58475
272 2 2.2208 7.89266 12.1302 8.08144
273 2 2.2208 8.01283 6.64131 8.21584
274 2 2.2208 10.8306 6.6334 10.9717
275 2 2.2208 10.639 12.2177 10.9697
276 1 -1.1104 12.0846 8.14245 12.2132
277 1 -1.1104 12.0543 8.01827 9.52947
278 1 -1.1104 12.2208 5.22612 12.4493
279 1 -1.1104 12.1886 10.8691 12.263
280 2 2.2208 10.7739 9.34637 8.12253
281 1 -1.1104 12.2783 5.31513 9.70961
282 1 -1.1104 12.1783 10.854 9.45896
283 1 -1.1104 9.29236 7.86698 12.4943
112 1 -1.1104 6.50167 19.2073 6.81517
117 1 -1.1104 0.984618 16.3745 6.69902
124 1 -1.1104 3.64442 13.6393 6.86477
118 1 -1.1104 6.56831 16.3962 6.77284
111 1 -1.1104 6.45814 13.6516 6.61989
202 2 2.2208 2.46886 14.9389 10.9993
209 2 2.2208 2.37241 20.5904 11.0262
231 1 -1.1104 3.78866 16.4305 12.3863
284 1 -1.1104 3.88348 19.1403 12.4816
285 1 -1.1104 3.88623 13.6503 12.269
289 1 -1.1104 0.974361 19.4002 9.49424
290 1 -1.1104 1.11307 16.467 9.53353
291 2 2.2208 5.14011 20.4537 8.18818
292 1 -1.1104 0.926005 13.53 9.56887
293 2 2.2208 5.13623 14.9877 8.10911
296 1 -1.1104 0.978183 19.1861 12.4579
297 1 -1.1104 1.0461 13.6545 12.2439
298 2 2.2208 5.26099 17.8952 11.0433
299 1 -1.1104 3.63112 19.1575 9.70924
301 2 2.2208 2.47607 17.7157 8.19593
302 1 -1.1104 3.89084 16.4959 9.59357
303 1 -1.1104 3.69217 13.587 9.51646
305 1 -1.1104 0.887815 16.4807 12.3291
286 1 -1.1104 6.47693 19.3135 9.71742
304 1 -1.1104 6.50131 16.4903 12.2966
288 1 -1.1104 6.37682 13.5845 9.37262
295 1 -1.1104 6.67907 13.8662 12.1918
294 1 -1.1104 6.87747 19.2877 12.4746
287 1 -1.1104 6.58078 16.5824 9.5756
576 2 2.2208 2.28255 20.6299 -0.355272
145 1 -1.1104 9.33523 19.2106 6.75045
30 1 -1.1104 9.60263 16.4861 12.3343
572 2 2.2208 8.03204 3.87084 -0.380628
135 1 -1.1104 12.1184 16.4443 9.48459
26 2 2.2208 10.8493 17.8425 10.8506
137 1 -1.1104 9.56774 19.2168 12.3024
199 1 -1.1104 9.38914 13.7525 9.62316
83 1 -1.1104 12.2957 16.4606 12.2018
161 1 -1.1104 9.2669 16.4514 6.63349
143 1 -1.1104 11.9927 13.681 6.773
136 1 -1.1104 9.33714 13.5698 12.4081
149 1 -1.1104 12.2911 16.5595 6.79345
542 2 2.2208 2.37527 3.79787 -0.15162
197 2 2.2208 7.88287 17.871 8.06847
50 1 -1.1104 12.461 19.1415 12.3991
53 2 2.2208 8.06964 15.1692 10.9755
27 1 -1.1104 12.202 13.6037 12.3668
822 1 -1.1104 12.2014 19.4595 6.66017
52 2 2.2208 8.14428 20.5621 11.0747
200 1 -1.1104 9.37029 19.1735 9.48561
352 2 2.2208 7.95754 15.2117 -0.27846
105 2 2.2208 10.6289 20.4667 8.08476
104 2 2.2208 10.8383 15.0394 8.16924
8345 2 2.2208 13.6099 -4.52395 2.38787
9260 2 2.2208 -0.409263 6.64122 -0.275967
577 2 2.2208 13.6 -1.71233 -0.363367
317 2 2.2208 5.19108 0.900818 -0.299647
630 2 2.2208 10.7782 6.75598 -0.311248
9258 2 2.2208 -0.401436 20.5335 13.5946
312 2 2.2208 11.0756 20.524 13.5332
8507 2 2.2208 13.5494 -4.48743 13.6121
318 2 2.2208 5.06404 0.997432 16.5848
319 1 -1.1104 1.10081 -3.11213 18.1384
320 1 -1.1104 0.956142 2.55907 18.2918
323 1 -1.1104 0.949207 -3.1807 15.2775
324 1 -1.1104 1.02415 2.43194 15.3212
329 1 -1.1104 0.943749 -0.386071 18.1609
331 2 2.2208 5.12658 -1.7386 19.256
333 1 -1.1104 1.05363 -0.379013 15.2607
336 1 -1.1104 3.77921 -3.1968 17.875
337 1 -1.1104 3.75166 2.43586 17.9759
338 2 2.2208 2.57552 1.11078 19.2528
339 1 -1.1104 3.7139 -3.27958 15.0443
341 1 -1.1104 3.73746 2.4739 15.1772
343 2 2.2208 2.4353 -1.85893 16.5986
344 2 2.2208 2.3056 3.92256 16.7577
345 1 -1.1104 3.83135 -0.264251 17.8953
346 1 -1.1104 3.76871 -0.535492 15.2703
347 1 -1.1104 3.85081 -0.109777 20.6985
332 2 2.2208 5.18694 3.99113 19.4339
330 1 -1.1104 6.44941 -0.404268 17.9252
325 1 -1.1104 6.56223 -3.26234 15.1657
321 1 -1.1104 6.57421 -3.03288 17.8378
327 1 -1.1104 6.53929 2.39969 15.2348
334 1 -1.1104 6.44262 -0.403094 15.1531
340 1 -1.1104 3.86588 -3.30349 20.6234
322 1 -1.1104 6.50072 2.33944 17.9109
328 1 -1.1104 6.46604 2.58173 20.8121
390 2 2.2208 10.856 3.80813 13.8578
335 1 -1.1104 6.62137 -0.402939 20.8534
488 2 2.2208 2.4271 17.8194 13.777
9257 2 2.2208 -0.272387 14.9555 13.7349
453 2 2.2208 7.95452 6.59118 13.8515
358 2 2.2208 10.8297 1.09918 16.4872
359 1 -1.1104 12.2713 -3.10597 17.8216
360 1 -1.1104 12.1637 2.45707 17.8173
361 1 -1.1104 12.1268 -3.15151 15.0257
363 1 -1.1104 12.2905 2.43753 15.1246
365 1 -1.1104 12.3038 -0.427975 17.8016
366 2 2.2208 10.7773 -1.82055 19.2234
367 2 2.2208 10.6966 3.77452 19.3232
368 1 -1.1104 12.1971 -0.404952 15.0128
370 1 -1.1104 9.25511 -3.30559 17.9379
371 1 -1.1104 9.27192 2.24804 17.8829
372 2 2.2208 7.84725 1.05318 19.337
373 1 -1.1104 9.35436 -3.14838 15.1031
375 1 -1.1104 9.35657 2.57854 15.0753
377 2 2.2208 7.94187 -1.70982 16.4497
378 2 2.2208 7.86545 3.7636 16.5285
379 1 -1.1104 9.35865 -0.539079 17.9269
380 1 -1.1104 9.34189 -0.267294 15.083
350 2 2.2208 13.7609 3.91818 16.5456
309 2 2.2208 2.4632 0.985683 13.7514
376 1 -1.1104 9.34555 2.38814 20.6938
547 2 2.2208 2.28938 -4.49685 25.0659
635 1 -1.1104 9.54183 19.2451 23.8173
9118 2 2.2208 13.6501 12.177 13.8262
391 2 2.2208 5.24535 6.76036 16.6193
392 2 2.2208 5.25815 12.1602 16.518
393 1 -1.1104 0.979177 8.23466 18.1179
395 1 -1.1104 0.897544 7.98331 15.2674
399 1 -1.1104 1.00774 5.48552 18.0581
400 1 -1.1104 1.09162 11.0121 17.9281
403 2 2.2208 5.24865 9.57638 19.43
404 1 -1.1104 0.887424 5.28958 15.4451
406 1 -1.1104 1.07785 10.6994 15.1807
412 1 -1.1104 3.921 8.14529 18.0268
413 2 2.2208 2.39163 6.73538 19.4261
414 2 2.2208 2.40803 12.3115 19.3545
415 1 -1.1104 3.58151 8.0137 15.3282
417 2 2.2208 2.34307 9.41767 16.5716
418 1 -1.1104 3.76156 5.34558 18.0534
419 1 -1.1104 3.83238 11.0323 17.9768
420 1 -1.1104 3.74771 5.16223 15.3021
422 1 -1.1104 3.85291 10.7141 15.1726
410 1 -1.1104 6.65474 10.8668 15.2277
397 1 -1.1104 6.50359 7.94569 15.1803
408 1 -1.1104 6.64989 5.2896 15.1583
401 1 -1.1104 6.5485 5.35916 18.0136
402 1 -1.1104 6.74152 10.8293 17.9327
394 1 -1.1104 6.7968 8.13256 18.1026
409 1 -1.1104 6.62826 5.35852 20.7928
423 1 -1.1104 3.7866 11.062 20.8645
421 1 -1.1104 3.9497 5.55519 20.8809
426 2 2.2208 2.41252 12.2159 13.8033
9285 2 2.2208 13.7124 17.9241 24.8778
9256 2 2.2208 -0.382348 17.8133 16.5432
429 2 2.2208 10.8274 6.55023 16.5612
430 2 2.2208 10.8425 12.2571 16.6342
431 1 -1.1104 12.1977 8.14168 17.9272
432 1 -1.1104 12.1584 7.80788 15.0092
434 1 -1.1104 12.1696 5.17973 17.873
435 1 -1.1104 12.346 11.0199 18.0296
436 2 2.2208 10.8335 9.47262 19.5412
437 1 -1.1104 12.3535 5.09541 15.0801
439 1 -1.1104 12.129 10.7323 15.2221
441 1 -1.1104 9.72266 8.02075 18.1561
442 2 2.2208 8.10864 6.69113 19.5228
443 2 2.2208 8.09669 12.2683 19.2755
444 1 -1.1104 9.29668 7.9526 15.3025
446 2 2.2208 8.15606 9.31395 16.6856
447 1 -1.1104 9.34393 5.22367 17.8743
448 1 -1.1104 9.55637 10.8605 17.9373
449 1 -1.1104 9.4676 5.19565 15.18
451 1 -1.1104 9.53511 10.9673 14.9475
9146 2 2.2208 13.773 6.69792 19.3419
308 2 2.2208 5.20337 -1.84757 13.7399
445 1 -1.1104 9.42009 7.98637 20.9838
438 1 -1.1104 12.1928 5.25052 20.6911
450 1 -1.1104 9.41536 5.12095 20.8657
433 1 -1.1104 12.2124 8.02285 20.8962
546 2 2.2208 4.9972 -4.43858 22.21
349 2 2.2208 13.658 0.93421 13.6869
9144 2 2.2208 13.5934 6.58976 13.8139
428 2 2.2208 10.7852 9.49723 13.7687
455 2 2.2208 5.25002 17.7729 16.5312
456 1 -1.1104 1.0306 13.7251 17.8593
457 1 -1.1104 0.906711 19.2649 17.8638
460 1 -1.1104 0.848908 13.5004 15.2469
462 1 -1.1104 0.999551 19.1241 15.1125
468 1 -1.1104 1.05533 16.4031 17.8491
470 2 2.2208 5.11057 15.1296 19.396
471 2 2.2208 5.16416 20.8019 19.337
472 1 -1.1104 0.960662 16.3937 15.1175
476 1 -1.1104 3.91504 13.634 17.8569
477 1 -1.1104 3.62726 19.3593 18.0246
478 2 2.2208 2.27733 17.9274 19.2874
479 1 -1.1104 3.81146 13.6975 14.9128
481 1 -1.1104 3.81304 19.1449 15.2422
483 2 2.2208 2.5451 15.0728 16.6194
484 2 2.2208 2.28658 20.6247 16.5253
485 1 -1.1104 3.88668 16.5082 18.0074
486 1 -1.1104 3.79014 16.4372 15.2402
464 1 -1.1104 6.63576 13.7589 15.1361
474 1 -1.1104 6.7311 16.5486 15.1292
459 1 -1.1104 6.557 19.161 17.9513
469 1 -1.1104 6.59106 16.6007 18.1575
458 1 -1.1104 6.80312 13.5326 17.9462
466 1 -1.1104 6.58374 19.5024 15.2168
465 1 -1.1104 6.68063 13.8343 20.6788
473 1 -1.1104 0.92656 16.6034 20.6585
475 1 -1.1104 6.57848 16.5037 20.8512
633 1 -1.1104 12.4877 16.2948 26.362
490 2 2.2208 10.8524 17.882 16.5743
491 1 -1.1104 12.412 13.6941 18.0409
492 1 -1.1104 12.2243 19.1659 17.9937
493 1 -1.1104 12.3293 13.6303 15.2693
495 1 -1.1104 12.2879 19.1967 15.2531
497 1 -1.1104 12.2981 16.4251 18.0126
498 2 2.2208 11.0072 15.0922 19.4985
499 2 2.2208 10.8637 20.733 19.4111
500 1 -1.1104 12.214 16.5306 15.0371
502 1 -1.1104 9.55594 13.7623 17.9578
503 1 -1.1104 9.34275 19.2141 18.1586
504 2 2.2208 8.10063 17.816 19.4866
505 1 -1.1104 9.49437 13.6698 15.1648
507 1 -1.1104 9.54117 19.4142 15.063
509 2 2.2208 8.10093 15.1185 16.6036
510 2 2.2208 7.96502 20.556 16.6269
511 1 -1.1104 9.46816 16.5353 17.962
512 1 -1.1104 9.52415 16.4449 15.1738
501 1 -1.1104 12.2031 16.383 20.8408
506 1 -1.1104 9.50051 13.6499 20.7924
9213 2 2.2208 13.7123 15.0518 16.6035
517 2 2.2208 10.8922 14.9604 13.8241
314 2 2.2208 8.04849 1.13305 13.7418
513 1 -1.1104 9.39339 16.4129 20.8401
496 1 -1.1104 12.3249 19.2568 20.7625
427 2 2.2208 8.02523 12.2867 13.7698
342 1 -1.1104 3.36074 2.66743 20.6193
326 1 -1.1104 6.54006 -3.14025 20.717
454 2 2.2208 5.17948 15.0452 13.7523
518 2 2.2208 5.27336 1.00945 22.2278
519 1 -1.1104 0.456481 -3.22942 23.7788
520 1 -1.1104 1.33199 2.78139 23.6579
523 1 -1.1104 0.835977 -3.04386 26.5404
524 1 -1.1104 1.06152 2.33488 26.5443
528 2 2.2208 5.14687 -1.69473 25.0405
529 2 2.2208 5.2169 4.04785 25.1472
530 1 -1.1104 1.10233 -0.407461 26.0515
532 1 -1.1104 3.69806 -3.33056 23.7729
533 1 -1.1104 3.98261 2.56397 23.5154
534 2 2.2208 2.55654 1.23887 25.0036
535 1 -1.1104 3.7263 -3.19062 26.455
536 1 -1.1104 3.96258 2.51803 26.4108
538 1 -1.1104 3.98065 -0.0732171 23.7289
539 1 -1.1104 3.77837 -0.304931 26.5686
550 3 0 0.810015 -0.186345 22.2009
537 2 2.2208 2.58048 4.06693 22.3434
526 1 -1.1104 6.5742 2.49407 26.3162
525 1 -1.1104 6.53637 -3.06918 26.4017
521 1 -1.1104 6.64424 -3.1863 23.4424
527 1 -1.1104 6.80704 -0.308692 23.5929
522 1 -1.1104 6.56795 2.45938 23.6339
610 2 2.2208 10.967 15.1715 25.0248
364 1 -1.1104 12.2076 2.5013 20.5932
374 1 -1.1104 9.39454 -3.11287 20.7377
362 1 -1.1104 12.2128 -3.06812 20.644
381 1 -1.1104 9.46474 -0.281098 20.6359
369 1 -1.1104 12.2439 -0.31554 20.6604
389 2 2.2208 10.7292 -1.7641 13.7576
531 1 -1.1104 6.50843 -0.374543 26.4326
316 2 2.2208 8.12975 17.8901 13.6247
9255 2 2.2208 -0.421933 15.1055 19.2967
8547 2 2.2208 10.7721 -4.50387 16.4936
552 2 2.2208 10.8168 1.03046 21.9697
553 1 -1.1104 12.3703 -3.13366 23.5895
554 1 -1.1104 12.1192 2.29853 23.4293
555 1 -1.1104 12.1525 -3.05201 26.4547
556 1 -1.1104 12.2494 2.49225 26.3056
557 1 -1.1104 12.2016 -0.389067 23.535
558 2 2.2208 10.8073 -1.66378 24.9323
559 2 2.2208 10.8721 3.78374 25.0605
560 1 -1.1104 12.1184 -0.234114 26.3233
561 1 -1.1104 9.51528 -3.27988 23.514
562 1 -1.1104 9.46833 2.42877 23.4465
563 2 2.2208 7.86448 1.0011 24.9742
564 1 -1.1104 9.40275 -3.02045 26.27
565 1 -1.1104 9.40301 2.4765 26.2996
566 2 2.2208 7.92827 -1.76363 22.1009
567 2 2.2208 7.98682 3.76165 22.219
568 1 -1.1104 9.44432 -0.500753 23.4601
569 1 -1.1104 9.39133 -0.227995 26.3653
425 2 2.2208 5.19993 9.55444 13.8206
9145 2 2.2208 13.5733 9.55033 16.6045
634 1 -1.1104 9.40382 13.6776 23.6044
407 1 -1.1104 0.907918 10.7506 20.6063
416 1 -1.1104 3.87814 8.34747 20.8878
396 1 -1.1104 1.04632 7.8788 20.9308
548 2 2.2208 10.7705 17.8576 22.2569
551 1 -1.1104 12.3728 19.3635 23.5757
405 1 -1.1104 1.03542 4.84365 20.8194
398 1 -1.1104 6.68134 8.19522 20.7671
581 2 2.2208 5.26206 6.70065 22.2913
582 2 2.2208 5.28334 12.3524 22.3038
583 1 -1.1104 0.958096 8.15492 23.6915
585 1 -1.1104 0.931883 8.02171 26.4608
587 1 -1.1104 1.01477 5.44373 23.6529
588 1 -1.1104 0.949409 10.8883 23.6308
591 2 2.2208 5.24288 9.44227 25.0638
592 1 -1.1104 0.971522 5.12196 26.3887
593 1 -1.1104 0.932315 10.7125 26.4019
596 1 -1.1104 3.78227 8.03926 23.6869
597 2 2.2208 2.35276 6.78417 24.9596
598 2 2.2208 2.34203 12.3734 24.9695
599 1 -1.1104 3.73795 8.00595 26.4428
600 2 2.2208 2.43696 9.50778 22.2137
601 1 -1.1104 3.90555 5.32401 23.7407
602 1 -1.1104 3.7157 10.8467 23.6973
603 1 -1.1104 3.81449 5.27291 26.6153
604 1 -1.1104 3.78392 10.9667 26.5534
584 1 -1.1104 6.56916 8.01337 23.8234
594 1 -1.1104 6.57976 5.35618 26.464
586 1 -1.1104 6.6319 7.9148 26.5135
590 1 -1.1104 6.58186 10.832 23.5331
595 1 -1.1104 6.66672 10.7861 26.3161
589 1 -1.1104 6.60136 5.36009 23.5721
411 1 -1.1104 6.5738 11.0149 20.7034
608 1 -1.1104 12.3145 19.2389 26.2334
452 1 -1.1104 9.29696 10.7395 20.7392
9110 2 2.2208 13.5114 6.59308 24.9846
440 1 -1.1104 12.2053 10.8741 20.8628
9259 2 2.2208 13.5487 12.229 25.0507
9332 2 2.2208 13.5669 9.33483 22.272
612 1 -1.1104 9.30574 10.9406 26.4151
613 1 -1.1104 9.48695 5.26628 26.4365
614 1 -1.1104 9.33371 10.7625 23.5626
615 1 -1.1104 9.49027 5.28466 23.6719
616 2 2.2208 8.02821 9.39654 22.2143
617 1 -1.1104 9.36693 8.08398 26.5291
618 2 2.2208 7.92182 12.3407 25.024
619 2 2.2208 7.99755 6.65034 25.0962
620 2 2.2208 10.897 6.60127 22.169
621 2 2.2208 10.8026 12.1972 22.219
622 1 -1.1104 12.1845 8.09966 23.653
623 1 -1.1104 12.1624 8.1261 26.4
624 1 -1.1104 12.2421 5.26646 23.5009
625 1 -1.1104 12.0572 10.8559 23.6457
626 2 2.2208 10.7048 9.44453 25.0549
627 1 -1.1104 12.2142 5.26447 26.4658
628 1 -1.1104 12.0333 10.8908 26.4449
629 1 -1.1104 9.36181 7.89381 23.7918
463 1 -1.1104 1.04018 19.4179 20.6674
480 1 -1.1104 3.65873 13.7548 20.6917
549 1 -1.1104 12.1655 13.679 23.6222
461 1 -1.1104 0.821919 13.6307 20.7484
357 1 -1.1104 6.68165 16.6043 23.8005
643 1 -1.1104 6.83149 19.5007 23.7847
482 1 -1.1104 3.74481 19.363 20.7235
487 1 -1.1104 3.69867 16.5097 20.7251
351 2 2.2208 2.25467 15.0727 22.1117
353 2 2.2208 2.40442 20.794 22.1279
355 1 -1.1104 3.79296 16.381 23.5285
356 1 -1.1104 0.768792 16.465 23.5157
424 1 -1.1104 3.71603 13.8683 26.2939
515 2 2.2208 2.37197 17.8222 24.9867
516 1 -1.1104 3.73521 16.4779 26.3244
540 1 -1.1104 3.67678 19.3445 26.5458
636 1 -1.1104 3.85709 19.2419 23.5529
638 1 -1.1104 3.89833 13.7135 23.5184
640 1 -1.1104 0.945895 19.0786 26.3307
641 1 -1.1104 0.974901 16.4649 26.3608
642 1 -1.1104 0.914275 13.5233 26.4041
644 2 2.2208 5.14924 20.7488 24.9563
645 2 2.2208 5.18969 15.0617 24.952
647 1 -1.1104 1.03303 19.341 23.4547
648 1 -1.1104 1.01758 13.7426 23.4891
649 2 2.2208 5.15267 17.8721 22.1817
543 1 -1.1104 6.42675 19.3676 26.6607
637 1 -1.1104 6.54849 13.6935 26.316
646 1 -1.1104 6.60025 13.6359 23.529
639 1 -1.1104 6.72926 16.5444 26.4729
467 1 -1.1104 6.72031 19.1977 20.8853
354 2 2.2208 8.00974 15.1222 22.1757
494 1 -1.1104 12.3222 13.6176 20.8945
508 1 -1.1104 9.50278 19.1939 20.9765
573 2 2.2208 8.03548 17.9298 25.0867
387 1 -1.1104 9.35825 13.8167 26.3645
382 2 2.2208 7.98166 20.7085 22.1976
611 2 2.2208 10.8555 20.7545 24.9914
385 1 -1.1104 9.26169 19.5438 26.5743
9287 2 2.2208 13.6397 15.0509 22.2732
383 1 -1.1104 9.56895 16.4734 23.7354
580 1 -1.1104 12.2134 13.5613 26.4815
384 1 -1.1104 9.50931 16.5639 26.4548
609 1 -1.1104 12.2901 16.6913 23.5809
315 2 2.2208 5.24749 20.7299 13.8341
9069 2 2.2208 -0.365693 18.0663 22.1517
9038 2 2.2208 -0.214424 3.83841 13.7902
579 2 2.2208 13.4853 1.06583 24.9976
489 2 2.2208 13.5629 3.73835 22.0409
8469 2 2.2208 13.5572 -4.59077 25.0394
544 2 2.2208 8.05345 20.8379 27.7585
9111 2 2.2208 13.5515 9.44171 27.6787
514 2 2.2208 11.0886 17.9085 27.5727
311 2 2.2208 2.39844 6.59121 13.9132
310 2 2.2208 5.16946 3.85144 13.8603
570 2 2.2208 10.6812 1.08968 27.7528
650 2 2.2208 5.27818 23.4709 5.46283
651 2 2.2208 5.22976 29.0371 5.16142
652 1 -1.1104 1.00292 24.7836 1.0614
653 1 -1.1104 0.931704 24.933 3.75159
654 1 -1.1104 0.966695 22.0631 1.13935
655 1 -1.1104 1.07507 27.7151 1.06527
656 2 2.2208 5.00527 26.173 2.47583
657 1 -1.1104 1.07676 22.147 3.81373
658 1 -1.1104 0.917092 27.7764 3.92009
659 1 -1.1104 3.82022 24.7345 1.00848
660 2 2.2208 2.38957 23.3963 2.47366
661 2 2.2208 2.35464 29.0967 2.42738
662 1 -1.1104 3.72869 24.9605 3.80983
663 2 2.2208 2.27706 26.2745 5.23181
664 1 -1.1104 3.67895 21.8778 1.06992
665 1 -1.1104 3.68749 27.6005 1.06882
666 1 -1.1104 4.03968 22.1601 3.90751
667 1 -1.1104 3.81669 27.7837 3.97486
672 1 -1.1104 6.48101 24.8049 3.89876
673 1 -1.1104 6.41297 22.319 1.1667
788 1 -1.1104 1.03997 24.659 6.66556
671 1 -1.1104 6.59474 25.0391 1.09644
676 1 -1.1104 6.57982 27.5302 3.78782
795 1 -1.1104 3.74138 22.1131 6.7239
796 1 -1.1104 3.80892 27.5937 6.56832
791 1 -1.1104 0.891672 27.5407 6.59083
794 1 -1.1104 3.86005 24.8771 6.62381
793 1 -1.1104 6.54649 27.6016 6.59709
674 1 -1.1104 6.35163 27.5966 1.08866
675 1 -1.1104 6.98997 21.999 3.90574
677 2 2.2208 10.9257 28.9966 5.14591
678 1 -1.1104 12.3118 25.0865 1.06492
679 1 -1.1104 12.5403 24.9434 3.62362
680 1 -1.1104 12.3823 22.2371 1.1158
681 1 -1.1104 12.2153 27.7799 0.983657
682 2 2.2208 10.7583 26.2698 2.39494
683 1 -1.1104 12.3086 27.765 3.75296
684 1 -1.1104 9.48962 24.8555 0.983615
685 2 2.2208 7.95928 23.5229 2.39731
686 2 2.2208 7.91372 29.0369 2.37981
687 1 -1.1104 9.27275 25.0073 3.82907
688 2 2.2208 8.00315 26.3163 5.12107
689 1 -1.1104 9.2429 22.1124 0.969636
690 1 -1.1104 9.36025 27.7813 1.10408
691 1 -1.1104 9.29167 27.8104 3.73264
151 3 0 10.9268 22.104 4.22016
966 2 2.2208 2.3618 29.024 13.6576
1509 1 -1.1104 6.57018 47.2227 9.26045
1049 2 2.2208 13.5272 45.9908 13.5623
826 1 -1.1104 9.52974 27.4033 6.47233
823 1 -1.1104 12.3621 27.6387 6.45969
961 2 2.2208 13.5348 34.7869 8.07702
740 2 2.2208 13.6575 34.7024 2.36745
1306 1 -1.1104 1.0003 47.4135 1.00609
698 2 2.2208 5.13344 34.6956 5.14749
699 1 -1.1104 0.831585 30.5024 1.12768
700 1 -1.1104 0.917529 36.0847 1.06179
702 1 -1.1104 0.857568 30.5475 3.83712
703 1 -1.1104 0.945524 36.0362 3.75668
705 1 -1.1104 1.04276 33.2783 0.962584
706 2 2.2208 5.12571 31.9437 2.48846
707 2 2.2208 5.08477 37.516 2.42121
708 1 -1.1104 0.841783 33.3437 3.82421
710 1 -1.1104 3.59789 30.4557 0.937236
711 1 -1.1104 3.6153 36.1235 0.928031
712 2 2.2208 2.39406 34.6201 2.30319
713 1 -1.1104 3.79149 30.5909 3.77811
714 1 -1.1104 3.64745 36.1154 3.72782
715 2 2.2208 2.34731 31.8122 5.21712
716 2 2.2208 2.2778 37.4103 5.1472
717 1 -1.1104 3.84446 33.3639 1.0018
718 1 -1.1104 3.71909 33.2965 3.76811
719 1 -1.1104 6.52418 30.315 0.993554
845 1 -1.1104 0.806785 36.0071 6.5121
701 1 -1.1104 6.42042 35.9213 0.969627
720 1 -1.1104 6.61362 30.4727 3.73664
704 1 -1.1104 6.48538 36.2063 3.85166
721 1 -1.1104 6.59886 33.0677 0.89754
709 1 -1.1104 6.52001 33.4346 3.75998
852 1 -1.1104 3.74936 33.2932 6.61775
846 1 -1.1104 6.5857 30.4487 6.5596
849 1 -1.1104 6.45953 33.249 6.53749
851 1 -1.1104 3.62873 36.085 6.60121
847 1 -1.1104 6.61915 35.9622 6.59104
970 2 2.2208 2.29635 34.6433 13.5513
787 2 2.2208 13.5495 40.2815 2.45091
722 2 2.2208 10.7108 34.5864 5.23951
723 1 -1.1104 12.1648 30.4731 0.862343
724 1 -1.1104 12.1244 36.0173 1.02679
725 1 -1.1104 12.3833 30.5714 3.78026
726 1 -1.1104 12.3598 36.0029 3.79983
727 1 -1.1104 12.1434 33.1814 1.04212
728 2 2.2208 10.762 31.8863 2.33523
729 2 2.2208 10.6919 37.4027 2.35479
730 1 -1.1104 12.1741 33.3683 3.99294
731 1 -1.1104 9.31323 30.5055 0.778731
732 1 -1.1104 9.31423 36.1444 1.04608
733 2 2.2208 8.00025 34.7603 2.45585
734 1 -1.1104 9.46579 30.4759 3.6834
735 1 -1.1104 9.2793 36.0978 3.69862
736 2 2.2208 8.0314 31.8348 5.05408
737 2 2.2208 8.10379 37.4329 5.25807
738 1 -1.1104 9.2629 33.3576 0.991038
739 1 -1.1104 9.40586 33.3148 3.82554
694 2 2.2208 13.5316 26.2325 5.11462
971 2 2.2208 7.91694 34.7477 13.4686
959 2 2.2208 13.6355 29.0981 8.04788
878 1 -1.1104 12.2721 30.48 6.67383
881 1 -1.1104 9.36787 30.3853 6.63453
880 1 -1.1104 12.1813 33.2694 6.7613
960 2 2.2208 13.702 23.5904 7.95333
741 2 2.2208 5.23429 40.3869 5.11024
742 2 2.2208 5.29538 45.9265 5.0051
743 1 -1.1104 0.847238 41.755 0.923143
745 1 -1.1104 0.939976 41.5739 3.6219