ITEM: TIMESTEP
20000
ITEM: NUMBER OF ATOMS
17700
ITEM: BOX BOUNDS pp pp pp
-4.3701770999231682e-01 2.7777017709991974e+01
-5.5125751795901463e+00 3.3359257517959173e+02
-4.4025292971301960e-01 2.7780252929712805e+01
ITEM: ATOMS id type q x y z
1 2 2.2208 5.37967 0.0424058 5.07428
2 1 -1.1104 1.08607 -4.06754 0.930801
6 1 -1.1104 0.977098 -4.0955 3.53588
10 1 -1.1104 1.17872 -1.26568 1.11422
12 2 2.2208 5.3146 -2.79391 2.29931
14 1 -1.1104 1.23029 -1.30008 3.80596
16 1 -1.1104 4.04046 -4.31554 1.06996
18 2 2.2208 2.59147 0.0365128 2.34482
19 1 -1.1104 4.06388 -4.31842 3.66545
21 2 2.2208 2.56704 -2.76921 4.9898
23 1 -1.1104 3.91434 -1.3327 0.838199
24 1 -1.1104 3.8613 -1.50939 3.57459
356 2 2.2208 11.0577 -2.60351 13.7094
202 2 2.2208 2.63235 -5.28156 7.75139
346 2 2.2208 -0.398807 -2.62976 13.6267
4 1 -1.1104 6.83128 -4.16818 0.809409
373 2 2.2208 10.8477 14.0953 13.6549
343 2 2.2208 -0.192613 8.68294 8.12554
170 1 -1.1104 1.14125 -1.21795 6.70894
11 1 -1.1104 6.77735 -1.29782 0.74897
15 1 -1.1104 6.75837 -1.31654 3.47886
8 1 -1.1104 6.96251 -4.20227 3.57543
31 2 2.2208 11.019 -0.00690045 5.17602
32 1 -1.1104 12.388 -4.15437 0.965485
34 1 -1.1104 12.4465 -4.10815 3.80284
36 1 -1.1104 12.4689 -1.30594 0.95299
37 2 2.2208 11.271 -2.56938 2.28831
39 1 -1.1104 12.6067 -1.34514 3.7521
40 1 -1.1104 9.58058 -4.34023 0.840795
42 2 2.2208 8.23274 0.0457334 2.44352
43 1 -1.1104 9.47559 -4.12002 3.60897
45 2 2.2208 8.28457 -2.85713 5.10048
47 1 -1.1104 9.75633 -1.18542 1.27418
48 1 -1.1104 9.77398 -1.43916 3.85411
323 1 -1.1104 12.1378 15.5459 9.57192
81 2 2.2208 -0.182626 5.79943 5.18866
30 2 2.2208 -0.187025 -5.53087 5.09311
363 2 2.2208 8.08323 5.71513 13.4537
168 1 -1.1104 6.82379 -4.08321 6.51453
3 1 -1.1104 1.12809 1.54447 1.1055
7 1 -1.1104 1.15581 1.41982 3.89328
13 2 2.2208 5.47311 2.89769 2.55851
17 1 -1.1104 3.94171 1.46069 0.93581
20 1 -1.1104 4.03973 1.46772 3.73842
22 2 2.2208 2.55884 2.7933 5.20042
54 2 2.2208 5.45825 5.50297 5.21901
56 1 -1.1104 1.11681 7.30222 1.04947
58 1 -1.1104 1.0938 7.01164 3.7592
60 1 -1.1104 1.11073 4.34549 1.14369
67 1 -1.1104 1.33427 4.19017 3.95486
71 1 -1.1104 4.054 7.02099 0.835738
72 2 2.2208 2.7514 5.69217 2.44308
74 1 -1.1104 4.02421 7.1766 3.65684
76 1 -1.1104 4.0562 4.07235 1.11334
79 1 -1.1104 4.04161 4.51118 3.92744
365 2 2.2208 8.19196 11.2126 13.659
27 2 2.2208 -0.201413 2.98473 2.45977
324 2 2.2208 10.8637 19.7909 8.08279
234 1 -1.1104 0.997882 7.06242 6.66017
173 1 -1.1104 3.92597 1.08416 6.41164
59 1 -1.1104 6.68752 6.92516 3.68909
57 1 -1.1104 6.86971 7.16785 0.936045
9 1 -1.1104 6.75674 1.41053 3.9082
5 1 -1.1104 6.96595 1.67753 1.13856
69 1 -1.1104 6.72801 4.07733 3.91259
63 1 -1.1104 6.80405 4.22475 0.802623
33 1 -1.1104 12.4644 1.48846 0.733661
35 1 -1.1104 12.3881 1.47063 3.48663
38 2 2.2208 10.8956 2.8902 2.3536
41 1 -1.1104 9.71266 1.341 0.850453
44 1 -1.1104 9.63355 1.32052 3.71197
46 2 2.2208 8.39404 2.87354 5.17803
84 2 2.2208 11.0752 5.82754 5.16505
86 1 -1.1104 12.6365 7.02656 0.969191
87 1 -1.1104 12.3687 7.06815 3.8098
88 1 -1.1104 12.2965 4.44445 1.00266
92 1 -1.1104 12.3463 4.29473 3.79573
94 1 -1.1104 9.74024 7.2449 0.910923
95 2 2.2208 8.29783 5.76786 2.30671
99 1 -1.1104 9.63029 4.20036 0.807803
102 1 -1.1104 9.51579 4.3374 3.73358
97 1 -1.1104 9.54791 7.36333 3.8407
169 1 -1.1104 6.91172 1.482 6.69671
267 1 -1.1104 9.71415 7.17271 6.5141
377 2 2.2208 8.12729 14.1861 -0.323841
83 2 2.2208 -0.285593 11.2247 5.32098
55 2 2.2208 5.35941 11.3069 5.34487
61 1 -1.1104 0.775709 10.1233 0.97994
66 2 2.2208 5.20156 8.52786 2.11198
68 1 -1.1104 0.886734 9.8804 3.84725
73 2 2.2208 2.38698 11.372 2.5198
75 2 2.2208 2.56077 8.44902 5.32111
77 1 -1.1104 3.69258 9.91826 1.07052
80 1 -1.1104 3.89648 10.1168 3.76404
107 1 -1.1104 1.05378 13.05 1.30659
113 1 -1.1104 1.01343 12.8031 4.06987
123 1 -1.1104 3.88683 12.6045 1.07935
128 1 -1.1104 3.63335 12.8978 3.87506
136 2 2.2208 -0.147693 19.6859 2.65406
386 2 2.2208 -0.416802 0.126775 -0.261683
403 2 2.2208 2.44356 14.2322 -0.380724
337 2 2.2208 13.6223 14.2392 5.13283
352 2 2.2208 5.34527 2.8973 13.5805
78 1 -1.1104 4.09578 9.92596 6.63073
62 1 -1.1104 1.17005 9.98796 6.68732
124 1 -1.1104 3.59999 12.9197 6.82234
64 1 -1.1104 6.7826 9.78233 1.1503
70 1 -1.1104 6.79077 10.0171 4.05701
110 1 -1.1104 6.73959 12.5002 1.1458
115 1 -1.1104 6.66649 12.8205 3.80614
85 2 2.2208 10.6431 11.3351 5.31835
89 1 -1.1104 12.1678 9.93841 0.939261
91 2 2.2208 10.8512 8.66154 2.42278
93 1 -1.1104 12.2724 9.94988 3.74717
96 2 2.2208 8.06855 11.2911 2.44454
98 2 2.2208 8.05877 8.69512 5.39905
100 1 -1.1104 9.48815 10.0411 1.08129
103 1 -1.1104 9.55975 9.96873 3.99962
142 1 -1.1104 12.2196 12.7047 1.15965
146 1 -1.1104 12.2342 12.7237 4.09121
153 1 -1.1104 9.78343 12.8925 0.927632
158 1 -1.1104 9.31488 12.7556 3.91222
342 2 2.2208 -0.34986 11.4289 11.0876
154 1 -1.1104 9.22335 12.8972 6.66043
143 1 -1.1104 12.0519 12.6102 6.76474
90 1 -1.1104 12.2022 9.7905 6.59208
25 2 2.2208 -0.361123 -2.6761 2.29629
405 2 2.2208 2.51004 19.8815 -0.215614
119 2 2.2208 5.07896 14.0537 2.57741
130 2 2.2208 2.29419 14.1467 5.30265
106 2 2.2208 5.36713 17.1332 5.51812
109 1 -1.1104 1.13222 18.2323 1.14488
114 1 -1.1104 1.35676 18.4726 3.85959
116 1 -1.1104 1.02403 15.7069 1.27859
120 2 2.2208 5.36857 19.8257 2.73515
121 1 -1.1104 0.802378 15.5175 4.11913
125 1 -1.1104 3.93808 18.467 1.4189
127 2 2.2208 2.38734 16.9382 2.61926
129 1 -1.1104 3.96395 18.3452 4.1142
131 2 2.2208 2.45875 19.9361 5.52903
132 1 -1.1104 3.72781 15.3666 1.20915
134 1 -1.1104 3.72285 15.4371 3.92277
404 2 2.2208 5.05851 16.9787 -0.277842
126 1 -1.1104 3.79602 18.6552 6.85978
149 1 -1.1104 12.188 15.2603 6.58197
138 1 -1.1104 6.91873 18.3069 0.911273
150 2 2.2208 10.9064 14.1519 2.43139
139 1 -1.1104 6.88978 18.4958 3.91724
122 1 -1.1104 6.79204 15.8691 4.02781
140 1 -1.1104 6.46376 15.4455 1.00194
160 2 2.2208 7.88934 14.2344 5.23155
141 2 2.2208 10.8555 16.7201 5.2704
144 1 -1.1104 12.2542 18.5051 0.828026
147 1 -1.1104 12.3082 18.5568 3.79616
148 1 -1.1104 12.2928 15.5087 0.956633
151 2 2.2208 10.7371 19.7887 2.51837
152 1 -1.1104 12.4014 15.6095 3.76231
155 1 -1.1104 9.35829 18.496 0.900039
157 2 2.2208 8.07008 16.8324 2.46862
159 1 -1.1104 9.45396 18.305 3.77805
161 2 2.2208 8.10833 19.8521 5.34817
162 1 -1.1104 9.37393 15.6782 1.23761
164 1 -1.1104 9.41195 15.3927 3.90516
163 1 -1.1104 9.41366 15.578 6.74468
232 2 2.2208 11.0186 -5.45472 10.8227
327 1 -1.1104 12.4054 18.4665 9.34973
156 1 -1.1104 9.61042 18.4193 6.50324
344 2 2.2208 -0.112914 5.93167 10.6688
381 2 2.2208 5.36184 0.137793 -0.372526
174 1 -1.1104 3.98226 -1.59585 6.42687
166 1 -1.1104 1.10871 -4.21431 6.42083
172 1 -1.1104 4.0271 -4.24702 6.38898
175 2 2.2208 5.17422 0.0671182 10.6781
176 1 -1.1104 1.37226 -4.24133 11.8218
180 1 -1.1104 1.31869 -4.17344 9.23742
184 1 -1.1104 1.11118 -1.29781 12.3031
186 2 2.2208 5.41262 -2.69066 7.81853
188 1 -1.1104 1.14894 -1.16742 9.46026
190 1 -1.1104 4.0999 -4.02661 12.2625
192 2 2.2208 2.36184 0.13318 7.90207
193 1 -1.1104 3.98093 -3.97998 9.37076
195 2 2.2208 2.54094 -2.72522 10.7532
197 1 -1.1104 3.87113 -1.31717 12.248
198 1 -1.1104 3.88454 -1.39565 9.28355
201 2 2.2208 -0.387725 0.0710972 10.7822
385 2 2.2208 5.18067 -5.46275 -0.480082
26 2 2.2208 -0.409123 0.279055 5.20666
171 1 -1.1104 6.8755 -1.4001 6.31739
205 1 -1.1104 12.4883 -4.08065 6.54148
207 1 -1.1104 12.5283 -1.31609 6.70585
210 1 -1.1104 9.76788 -1.38478 6.91039
178 1 -1.1104 6.69281 -4.17583 12.5617
189 1 -1.1104 6.77723 -1.49983 9.1631
182 1 -1.1104 6.79872 -4.05036 9.45052
208 1 -1.1104 9.69964 -4.24308 6.46073
185 1 -1.1104 6.78647 -1.22011 12.1846
211 2 2.2208 10.9056 0.363558 10.9313
212 1 -1.1104 12.4444 -3.89625 12.0824
214 1 -1.1104 12.4354 -4.3703 9.33379
216 1 -1.1104 12.1866 -1.15607 12.3964
217 2 2.2208 11.0836 -2.70234 8.06251
219 1 -1.1104 12.3512 -1.33915 9.57389
220 1 -1.1104 9.4365 -3.90536 12.3711
222 2 2.2208 8.23151 0.095411 8.08756
223 1 -1.1104 9.65593 -3.94405 9.30312
225 2 2.2208 8.14877 -2.54042 10.8222
227 1 -1.1104 9.47098 -1.27482 12.2748
228 1 -1.1104 9.49744 -1.02695 9.62658
384 2 2.2208 -0.42964 -5.36739 -0.265486
118 1 -1.1104 6.51241 15.6132 6.6771
375 2 2.2208 13.5911 19.8125 -0.424773
236 1 -1.1104 1.01941 4.31508 6.67539
239 1 -1.1104 3.71347 4.1131 6.75082
167 1 -1.1104 1.11971 1.66196 6.66754
238 1 -1.1104 4.13024 7.04486 6.31254
177 1 -1.1104 0.984102 1.34875 12.4602
181 1 -1.1104 0.964087 1.5484 9.52827
187 2 2.2208 5.4374 2.93926 7.90316
191 1 -1.1104 3.81053 1.5209 12.0416
194 1 -1.1104 3.78642 1.49474 9.30719
196 2 2.2208 2.42662 2.71879 11.0303
240 2 2.2208 5.41919 5.80663 10.7682
242 1 -1.1104 1.30589 7.24797 12.1112
244 1 -1.1104 1.05776 7.16136 9.25581
246 1 -1.1104 1.04535 4.2423 12.2746
251 1 -1.1104 1.16027 4.31679 9.66925
255 1 -1.1104 3.96459 7.09807 12.0432
256 2 2.2208 2.64536 5.72638 8.08612
258 1 -1.1104 3.97349 7.30954 9.25822
260 1 -1.1104 3.97577 4.41199 12.3223
262 1 -1.1104 4.14003 4.39499 9.4126
206 1 -1.1104 12.4622 1.48223 6.54934
235 1 -1.1104 6.83089 6.89735 6.42548
209 1 -1.1104 9.61917 1.36824 6.52576
237 1 -1.1104 6.88531 4.28675 6.58276
269 1 -1.1104 9.6323 4.45391 6.28881
265 1 -1.1104 12.6178 7.16702 6.62893
179 1 -1.1104 6.43534 1.39231 12.1612
253 1 -1.1104 6.99536 4.45873 9.40015
183 1 -1.1104 6.56152 1.65702 9.42643
243 1 -1.1104 6.91633 7.31704 12.2289
245 1 -1.1104 6.57 7.27777 9.50302
248 1 -1.1104 6.57797 4.25829 12.0984
266 1 -1.1104 12.368 4.38881 6.72479
213 1 -1.1104 12.3846 1.48218 12.3159
215 1 -1.1104 12.4026 1.7366 9.33921
218 2 2.2208 11.1768 2.98894 7.91055
221 1 -1.1104 9.43829 1.70047 12.2298
224 1 -1.1104 9.4404 1.50729 9.3932
226 2 2.2208 8.02461 2.96554 10.8082
268 1 -1.1104 9.74212 4.51599 9.17657
271 1 -1.1104 9.61996 4.20084 12.2026
273 1 -1.1104 9.63175 7.08237 9.29375
275 2 2.2208 8.35423 5.76417 7.82025
276 2 2.2208 10.8746 5.66677 10.8642
278 1 -1.1104 12.4716 7.0427 12.3476
279 1 -1.1104 12.3549 6.9924 9.60292
280 1 -1.1104 12.5614 4.33868 12.2079
283 1 -1.1104 12.4526 4.19377 9.37005
285 1 -1.1104 9.41737 6.9458 12.245
332 2 2.2208 13.677 16.9906 7.93031
108 1 -1.1104 1.05692 12.9054 6.86919
287 1 -1.1104 3.64584 12.9436 12.2997
305 1 -1.1104 3.81975 12.9589 9.67146
299 1 -1.1104 0.955166 12.7995 12.4537
294 1 -1.1104 0.787994 12.7576 9.61075
241 2 2.2208 5.23096 11.4241 10.8322
247 1 -1.1104 1.39361 9.94083 12.418
250 2 2.2208 5.28773 8.58322 7.95587
252 1 -1.1104 1.0485 10.1234 9.51158
257 2 2.2208 2.39603 11.6914 8.26663
259 2 2.2208 2.55455 8.6409 10.8548
261 1 -1.1104 3.93259 10.1666 12.2967
263 1 -1.1104 3.86163 10.153 9.31567
199 2 2.2208 -0.21546 3.11802 8.01585
101 1 -1.1104 9.48039 10.0273 6.92895
65 1 -1.1104 6.74025 10.0873 6.87729
111 1 -1.1104 6.27905 12.8516 6.61311
290 1 -1.1104 6.45502 12.9366 9.48178
297 1 -1.1104 6.71383 12.7962 12.2916
254 1 -1.1104 6.59395 10.1423 9.57271
249 1 -1.1104 6.73177 9.88871 12.4001
330 1 -1.1104 12.1495 12.5404 12.3957
328 1 -1.1104 12.399 12.8328 9.55088
322 1 -1.1104 9.44048 12.5577 12.0661
319 1 -1.1104 9.28545 12.8 9.56788
264 1 -1.1104 9.55017 9.93878 9.59777
270 1 -1.1104 9.55795 9.68896 12.4185
272 2 2.2208 8.11585 8.6864 10.8183
274 2 2.2208 8.07034 11.4941 8.11381
277 2 2.2208 10.9234 11.1599 10.9814
281 1 -1.1104 12.5411 9.71227 12.4074
282 2 2.2208 11.1122 8.53415 8.0591
284 1 -1.1104 12.2856 9.92258 9.5894
302 1 -1.1104 0.938292 18.5215 6.7915
117 1 -1.1104 1.00423 15.7997 6.81453
400 2 2.2208 10.9506 11.2865 -0.439649
359 2 2.2208 2.41549 5.72483 13.6323
388 2 2.2208 8.31029 -2.74862 -0.366491
295 2 2.2208 5.10525 14.4206 8.14827
310 2 2.2208 2.37513 14.4261 10.9134
133 1 -1.1104 3.73594 15.758 6.86806
309 2 2.2208 2.20873 19.8089 11.0273
308 1 -1.1104 3.92944 15.7282 12.2591
307 1 -1.1104 1.08764 15.5261 12.311
304 1 -1.1104 3.81654 15.8867 9.62482
303 2 2.2208 2.23508 17.2443 8.19681
301 1 -1.1104 3.79673 18.587 9.57615
300 2 2.2208 5.29684 17.0226 10.9267
298 1 -1.1104 0.94103 18.2317 12.3256
293 2 2.2208 5.37374 19.8772 8.36115
292 1 -1.1104 0.966884 15.6726 9.3117
291 1 -1.1104 0.993998 18.6214 9.71358
286 1 -1.1104 3.61465 18.6639 12.421
316 2 2.2208 8.1565 19.8764 10.9296
296 1 -1.1104 6.43483 18.442 12.3553
325 2 2.2208 10.9452 14.1727 8.19027
317 2 2.2208 7.97559 14.1949 10.8956
326 1 -1.1104 12.2237 15.5242 12.3671
306 1 -1.1104 6.66843 15.5247 12.2702
145 1 -1.1104 12.3039 18.0914 6.55049
331 2 2.2208 10.9431 16.9352 10.8788
320 2 2.2208 8.18018 16.9679 8.16474
329 1 -1.1104 12.1811 18.3981 12.1146
315 1 -1.1104 9.53536 15.5777 12.3499
289 1 -1.1104 6.74755 15.5111 9.5618
288 1 -1.1104 6.69517 18.243 9.5797
318 1 -1.1104 9.65501 18.4012 9.406
314 1 -1.1104 9.53203 15.647 9.56489
112 1 -1.1104 6.69892 18.457 6.85808
321 1 -1.1104 9.32832 18.4548 12.3787
200 2 2.2208 -0.0822007 -2.8953 7.83687
401 2 2.2208 -0.306208 16.8103 -0.23229
104 2 2.2208 13.7084 11.3353 2.57238
360 2 2.2208 5.17148 8.48571 13.4945
397 2 2.2208 -0.173418 5.85936 -0.232505
355 2 2.2208 7.94609 0.186574 13.6543
313 2 2.2208 -0.427777 14.2544 8.08405
374 2 2.2208 13.6658 14.0839 -0.13784
376 2 2.2208 8.1797 17.0295 13.6435
370 2 2.2208 13.6929 0.226163 13.5845
406 2 2.2208 5.22245 0.307302 16.4324
407 1 -1.1104 1.14372 -3.79656 17.9695
411 1 -1.1104 1.0241 -4.017 15.0629
419 1 -1.1104 0.944051 -1.13128 17.9837
421 2 2.2208 5.18169 -2.85085 19.303
423 1 -1.1104 0.773748 -1.09701 15.0702
427 1 -1.1104 3.88656 -4.07408 18.0565
429 2 2.2208 2.52101 0.0762202 19.3327
430 1 -1.1104 3.58009 -4.23651 15.2978
434 2 2.2208 2.41203 -2.72537 16.4574
436 1 -1.1104 3.70244 -1.33318 17.8287
437 1 -1.1104 3.81988 -1.50817 14.9804
443 2 2.2208 -0.372559 -2.62531 19.2728
442 2 2.2208 -0.368619 0.15964 16.5851
475 2 2.2208 8.12527 -5.36709 19.2223
383 2 2.2208 2.60901 2.84286 27.7892
444 2 2.2208 -0.33289 5.62113 21.9487
412 1 -1.1104 0.858756 -3.90982 20.6823
424 1 -1.1104 1.15855 -1.22864 20.8702
409 1 -1.1104 6.77684 -4.12426 17.9802
415 1 -1.1104 6.56223 -4.07367 15.3933
420 1 -1.1104 6.6185 -1.22899 17.775
425 1 -1.1104 6.67573 -0.936339 15.0812
449 2 2.2208 10.9165 0.140572 16.4963
450 1 -1.1104 12.4629 -4.14813 17.9573
452 1 -1.1104 12.4952 -4.1221 15.0908
456 1 -1.1104 12.2813 -1.48765 17.8886
457 2 2.2208 10.8953 -2.59027 19.2989
459 1 -1.1104 12.2604 -1.31711 15.1502
461 1 -1.1104 9.57548 -3.75294 17.7704
463 2 2.2208 8.24582 0.357716 19.3762
464 1 -1.1104 9.58615 -4.01394 14.9266
468 2 2.2208 8.05859 -2.63129 16.5441
470 1 -1.1104 9.5311 -1.17255 18.0644
471 1 -1.1104 9.44834 -1.29192 15.1457
399 2 2.2208 8.05655 8.55248 27.6593
665 1 -1.1104 9.60973 18.0057 23.49
441 2 2.2208 2.29301 -5.50171 19.2838
408 1 -1.1104 0.924941 1.58109 17.8604
413 1 -1.1104 1.10817 1.62927 15.0746
422 2 2.2208 5.32604 3.06519 19.1905
428 1 -1.1104 3.76049 1.68063 17.5691
432 1 -1.1104 3.94058 1.59138 14.799
435 2 2.2208 2.397 2.9742 16.5119
482 2 2.2208 5.4128 5.61757 16.3387
484 1 -1.1104 0.959568 7.15093 17.8826
486 1 -1.1104 1.01115 7.22028 15.2316
490 1 -1.1104 1.39646 4.18981 18.0267
495 1 -1.1104 1.02233 4.21811 15.025
503 1 -1.1104 3.86762 7.18789 17.9708
504 2 2.2208 2.48843 5.72306 19.3491
506 1 -1.1104 4.00705 7.13996 14.9404
509 1 -1.1104 4.1598 4.45546 17.8923
511 1 -1.1104 3.74741 4.32891 15.0951
382 2 2.2208 2.50054 -2.69492 27.7391
544 2 2.2208 -0.425305 2.8865 19.2534
433 1 -1.1104 4.03975 1.37049 20.54
496 1 -1.1104 1.04917 4.42576 20.6191
635 1 -1.1104 12.2678 18.392 26.3927
395 2 2.2208 5.19841 11.2554 27.8369
485 1 -1.1104 6.54859 7.08919 17.9454
417 1 -1.1104 6.68707 1.5937 14.9925
492 1 -1.1104 6.81817 4.3917 17.5882
488 1 -1.1104 6.81815 7.25265 15.0166
499 1 -1.1104 6.66997 4.33858 14.9171
410 1 -1.1104 6.75351 1.57891 17.8665
451 1 -1.1104 12.3447 1.50094 18.064
454 1 -1.1104 12.4377 1.41134 15.1824
458 2 2.2208 10.9907 2.99775 19.3903
462 1 -1.1104 9.54878 1.6892 17.7024
466 1 -1.1104 9.46353 1.46668 14.9309
469 2 2.2208 8.33454 2.95402 16.2741
518 2 2.2208 10.8813 5.77141 16.6031
521 1 -1.1104 12.5042 7.08376 15.1194
523 1 -1.1104 12.3787 4.48446 17.6488
526 1 -1.1104 12.4404 4.14301 14.9858
530 1 -1.1104 9.51834 7.07651 17.9585
531 2 2.2208 8.02666 5.84832 19.181
536 1 -1.1104 9.75456 4.3064 17.6952
538 1 -1.1104 9.57136 4.35805 14.9198
520 1 -1.1104 12.4164 7.47882 17.7814
534 1 -1.1104 9.59041 7.33763 20.5983
455 1 -1.1104 12.2554 1.3074 20.5557
418 1 -1.1104 6.5136 1.75483 20.7516
477 2 2.2208 13.7073 -2.65603 16.3287
357 2 2.2208 10.9624 2.89506 13.6722
483 2 2.2208 5.43144 11.3065 16.5018
491 1 -1.1104 1.1859 10.1963 17.8678
494 2 2.2208 5.13103 8.51711 19.2613
497 1 -1.1104 1.10703 9.78966 15.0431
505 2 2.2208 2.37894 11.5063 19.5006
508 2 2.2208 2.61246 8.57178 16.5225
510 1 -1.1104 3.91451 9.9114 17.7614
513 1 -1.1104 4.01092 9.72758 15.06
546 1 -1.1104 0.925679 12.7422 18.2695
550 1 -1.1104 1.18008 12.6935 15.2555
566 1 -1.1104 3.74266 12.8315 18.1116
569 1 -1.1104 4.00912 12.5153 15.1146
516 2 2.2208 -0.309409 11.2154 16.5673
515 2 2.2208 -0.316139 8.48514 19.2925
638 2 2.2208 10.9519 14.1393 25.1575
514 1 -1.1104 3.68719 9.87973 20.7299
570 1 -1.1104 4.03316 12.6543 20.7996
533 1 -1.1104 9.75566 6.95787 15.1338
361 2 2.2208 2.45363 11.4712 13.6965
548 1 -1.1104 6.60189 12.9795 17.8438
493 1 -1.1104 6.81236 9.90441 17.9447
501 1 -1.1104 6.762 10.0732 15.2617
554 1 -1.1104 6.82319 12.7392 15.0151
519 2 2.2208 10.9297 11.403 16.5459
524 1 -1.1104 12.3802 10.1321 17.9274
525 2 2.2208 10.8963 8.5753 19.1493
528 1 -1.1104 12.298 10.032 15.1294
532 2 2.2208 8.07458 11.5543 19.229
535 2 2.2208 8.19791 8.57416 16.4404
537 1 -1.1104 9.62707 9.8965 17.7932
540 1 -1.1104 9.57917 9.70828 15.0843
582 1 -1.1104 12.0334 12.841 17.9812
584 1 -1.1104 12.3159 12.8526 15.034
593 1 -1.1104 9.28382 12.6828 17.7625
596 1 -1.1104 9.44627 12.4053 15.0585
447 2 2.2208 -0.221334 16.8782 16.5306
502 1 -1.1104 6.62907 9.85759 20.7207
555 1 -1.1104 6.64481 12.7937 20.4299
529 1 -1.1104 12.2355 9.9988 20.846
393 2 2.2208 5.5718 5.6117 27.6923
371 2 2.2208 5.15894 14.0576 13.7604
476 2 2.2208 -0.408841 19.7899 19.6411
560 2 2.2208 5.14662 14.1198 19.2006
573 2 2.2208 2.49323 14.0366 16.5466
545 2 2.2208 5.09329 17.0589 16.6757
547 1 -1.1104 0.93887 18.2998 18.1718
552 1 -1.1104 0.848392 18.5165 15.097
558 1 -1.1104 0.933023 15.5033 18.0948
561 2 2.2208 5.26796 19.9217 19.5422
562 1 -1.1104 1.0794 15.5748 15.2169
567 1 -1.1104 3.91787 18.392 18.0261
568 2 2.2208 2.48525 16.9467 19.4024
571 1 -1.1104 3.60038 18.3921 15.2665
574 2 2.2208 2.40355 19.7535 16.6621
575 1 -1.1104 3.7417 15.436 17.9465
576 1 -1.1104 3.74874 15.3514 14.9713
351 2 2.2208 -0.305451 14.2199 13.8029
474 2 2.2208 11.0114 -5.38319 16.4505
445 2 2.2208 13.5767 8.38085 22.0984
353 2 2.2208 8.06734 -5.37753 13.6938
398 2 2.2208 10.8021 5.84011 27.785
728 2 2.2208 13.6933 5.55668 24.8347
565 1 -1.1104 6.5342 15.555 20.6746
549 1 -1.1104 6.70227 18.6547 18.1239
559 1 -1.1104 6.60205 15.7239 17.8794
556 1 -1.1104 6.29591 18.2815 15.1063
564 1 -1.1104 6.49813 15.3613 15.0868
589 2 2.2208 10.9674 14.1206 19.5163
600 2 2.2208 8.11115 14.3165 16.4791
581 2 2.2208 10.9616 17.0035 16.46
583 1 -1.1104 12.4619 18.3349 17.9476
586 1 -1.1104 12.4253 18.5107 15.0109
588 1 -1.1104 12.324 15.4965 18.1157
590 2 2.2208 10.8921 19.9337 19.4298
591 1 -1.1104 12.509 15.6997 15.0942
594 1 -1.1104 9.42026 18.3431 17.905
595 2 2.2208 8.04107 16.8501 19.3736
598 1 -1.1104 9.52999 18.5944 14.9997
601 2 2.2208 8.07255 19.788 16.4339
602 1 -1.1104 9.40342 15.3882 18.1288
603 1 -1.1104 9.56666 15.5507 15.1536
592 1 -1.1104 12.5528 15.4593 20.8731
699 2 2.2208 8.21954 14.1528 22.141
703 2 2.2208 -0.453441 11.388 22.2577
378 2 2.2208 10.7758 17.0518 27.7646
438 1 -1.1104 3.9008 -1.44847 20.7965
431 1 -1.1104 3.60832 -4.17704 20.864
396 2 2.2208 -0.414473 11.2716 27.6767
609 2 2.2208 5.21821 0.0595901 22.1895
610 1 -1.1104 1.17979 -4.29314 23.4454
614 1 -1.1104 0.888387 -4.17971 26.2876
618 1 -1.1104 0.765484 -1.23279 23.6076
620 2 2.2208 5.29515 -2.52211 24.8416
622 1 -1.1104 0.793978 -1.40052 26.6922
624 1 -1.1104 3.89862 -4.0761 23.601
626 2 2.2208 2.33513 0.22056 24.9053
627 1 -1.1104 3.8557 -3.99847 26.2985
629 2 2.2208 2.41521 -2.79019 22.2356
631 1 -1.1104 3.82937 -1.35845 23.5075
632 1 -1.1104 3.88317 -1.17582 26.2553
348 2 2.2208 5.22697 -2.76085 13.8036
701 1 -1.1104 9.45708 15.293 23.6643
669 2 2.2208 8.04414 -5.33278 25.1014
472 1 -1.1104 9.42116 -1.15297 20.7564
453 1 -1.1104 12.0468 -3.96145 21.0401
416 1 -1.1104 6.60565 -4.20245 20.8907
465 1 -1.1104 9.42227 -4.05343 20.8614
426 1 -1.1104 6.64201 -1.2062 20.6491
460 1 -1.1104 12.4543 -1.22626 20.7422
623 1 -1.1104 6.80167 -1.18284 26.2956
616 1 -1.1104 6.65963 -3.92069 26.4099
612 1 -1.1104 6.80768 -4.10962 23.6306
619 1 -1.1104 6.7896 -1.31923 23.4289
645 2 2.2208 10.79 0.0960102 22.1741
646 1 -1.1104 12.4844 -3.87773 23.7577
648 1 -1.1104 12.3337 -4.19308 26.5152
650 1 -1.1104 12.0919 -1.22008 23.7374
651 2 2.2208 10.8816 -2.66459 25.166
653 1 -1.1104 12.5088 -1.30949 26.4134
654 1 -1.1104 9.6698 -4.21364 23.5773
656 2 2.2208 8.1249 0.101047 25.0713
657 1 -1.1104 9.51102 -4.1281 26.4553
659 2 2.2208 8.21863 -2.76615 22.2724
661 1 -1.1104 9.51033 -1.17364 23.7842
662 1 -1.1104 9.60217 -1.36105 26.6203
736 1 -1.1104 6.73327 18.4813 23.7205
512 1 -1.1104 3.85543 4.33396 20.806
487 1 -1.1104 1.05089 7.07708 20.6021
394 2 2.2208 2.50231 8.56676 27.6128
644 2 2.2208 -0.331166 2.9099 24.8988
507 1 -1.1104 3.78926 7.15975 20.6487
414 1 -1.1104 1.13282 1.47317 20.6211
611 1 -1.1104 1.08111 1.72274 23.8362
615 1 -1.1104 1.09052 1.34434 26.568
621 2 2.2208 5.376 3.0049 24.9249
625 1 -1.1104 3.78397 1.45184 23.2169
628 1 -1.1104 3.8591 1.58764 26.1126
630 2 2.2208 2.52374 2.92677 21.9421
674 2 2.2208 5.40404 5.88293 22.2125
676 1 -1.1104 1.02669 7.193 23.3787
678 1 -1.1104 1.0422 7.15874 26.3768
680 1 -1.1104 1.20716 4.34725 23.4407
685 1 -1.1104 1.25703 4.29006 26.571
689 1 -1.1104 3.98041 7.4166 23.4209
690 2 2.2208 2.37037 5.67993 24.8764
692 1 -1.1104 3.74864 7.09438 26.0581
694 1 -1.1104 3.90961 4.50158 23.5403
696 1 -1.1104 4.0944 4.16249 26.5437
732 1 -1.1104 6.78716 15.3107 26.3089
489 1 -1.1104 6.62885 7.31653 20.9447
467 1 -1.1104 9.47127 1.63316 20.7114
613 1 -1.1104 6.716 1.67869 23.638
500 1 -1.1104 6.59838 4.6118 20.6616
539 1 -1.1104 9.53603 4.55636 20.4652
679 1 -1.1104 6.64536 7.01206 26.44
617 1 -1.1104 6.71201 1.63564 26.563
682 1 -1.1104 6.72689 4.56685 23.3522
687 1 -1.1104 6.78995 4.21805 26.1854
522 1 -1.1104 12.2894 6.98359 20.6394
527 1 -1.1104 12.2295 4.179 20.621
647 1 -1.1104 12.2874 1.44586 23.5107
649 1 -1.1104 12.461 1.48593 26.3401
652 2 2.2208 11.0679 2.90429 24.8447
655 1 -1.1104 9.5247 1.5822 23.5303
658 1 -1.1104 9.69682 1.58914 26.2609
660 2 2.2208 8.105 2.99266 22.0711
706 1 -1.1104 9.60273 4.44362 26.2269
708 1 -1.1104 9.66574 4.20127 23.4134
712 2 2.2208 8.26978 5.64708 24.9113
713 2 2.2208 10.9884 5.79015 22.0529
715 1 -1.1104 12.254 7.12503 23.3127
716 1 -1.1104 12.3115 6.98688 26.2202
717 1 -1.1104 12.3846 4.3404 23.2721
720 1 -1.1104 12.4519 4.11228 26.3836
722 1 -1.1104 9.60148 7.33265 23.4504
710 1 -1.1104 9.48037 7.15298 26.2055
677 1 -1.1104 6.92017 7.21124 23.7979
698 1 -1.1104 9.43318 18.0776 26.2484
498 1 -1.1104 1.00205 9.83216 20.7412
551 1 -1.1104 1.19622 12.7366 21.0342
448 2 2.2208 -0.329798 14.1395 19.4631
702 2 2.2208 -0.251385 8.42802 24.8327
746 1 -1.1104 3.82079 12.8069 26.461
675 2 2.2208 5.49188 11.4576 22.2477
681 1 -1.1104 0.923888 9.91206 23.5279
684 2 2.2208 5.14636 8.45636 24.9713
686 1 -1.1104 1.07799 9.8359 26.4515
691 2 2.2208 2.28691 11.4212 24.9333
693 2 2.2208 2.47853 8.55054 22.1423
695 1 -1.1104 3.72423 10.1306 23.769
697 1 -1.1104 3.95345 9.98851 26.6482
731 1 -1.1104 3.79737 12.8689 23.7188
735 1 -1.1104 0.982442 12.7177 26.6142
741 1 -1.1104 0.907082 12.9805 23.8294
688 1 -1.1104 6.44544 9.66663 26.5014
597 1 -1.1104 9.44073 12.9019 20.484
730 1 -1.1104 6.72752 12.5546 26.4302
739 1 -1.1104 6.82627 12.7187 23.366
541 1 -1.1104 9.54798 10.0328 20.8606
585 1 -1.1104 12.3495 12.6519 20.9265
683 1 -1.1104 6.50048 10.0787 23.7396
673 1 -1.1104 9.58091 12.6611 26.4664
664 1 -1.1104 9.62212 12.6598 23.471
634 1 -1.1104 12.3226 12.5977 26.5345
705 1 -1.1104 9.61126 9.89818 26.5937
707 1 -1.1104 9.56197 10.012 23.6874
709 2 2.2208 8.11284 8.59632 22.0951
711 2 2.2208 8.21032 11.3138 25.0507
714 2 2.2208 10.9273 11.2843 22.2785
718 1 -1.1104 12.3093 9.75524 23.5405
719 2 2.2208 10.9307 8.4443 24.9307
721 1 -1.1104 12.4644 9.87018 26.4119
608 1 -1.1104 12.2862 12.6011 23.8002
641 2 2.2208 10.9911 19.6211 24.9109
700 2 2.2208 8.05705 19.8017 22.1331
563 1 -1.1104 0.93636 15.4574 20.9526
369 2 2.2208 5.08037 19.7549 13.7367
577 1 -1.1104 3.69718 15.5774 20.8257
368 2 2.2208 2.21472 16.9435 13.7032
724 2 2.2208 -0.422192 19.5685 25.3338
553 1 -1.1104 1.06615 18.5401 20.9797
572 1 -1.1104 3.81561 18.4738 20.6526
727 2 2.2208 2.2874 14.1444 22.4005
738 2 2.2208 5.39509 13.9647 25.0967
750 2 2.2208 2.47019 19.8422 22.3384
749 1 -1.1104 3.95059 15.4222 23.8008
748 1 -1.1104 0.827957 15.7695 23.8026
745 1 -1.1104 3.90591 15.6216 26.5997
729 1 -1.1104 3.64215 18.1818 23.6029
733 1 -1.1104 1.02016 18.2694 26.6762
734 1 -1.1104 1.23614 15.4087 26.4913
737 2 2.2208 5.38799 19.8716 24.9432
740 1 -1.1104 0.804777 18.5248 23.832
742 2 2.2208 5.11959 16.7134 22.1903
743 1 -1.1104 3.96391 18.4283 26.5556
744 2 2.2208 2.58766 16.8666 25.2105
557 1 -1.1104 6.75485 18.2305 20.719
667 2 2.2208 8.16687 16.8945 24.8062
604 1 -1.1104 9.7693 15.5881 20.9392
607 2 2.2208 11.205 16.8934 22.1144
670 1 -1.1104 6.64467 18.3142 26.281
587 1 -1.1104 12.4011 18.6248 20.998
599 1 -1.1104 9.64659 18.3603 20.7348
663 1 -1.1104 12.2328 15.3909 26.5469
704 1 -1.1104 9.56573 15.4359 26.4718
747 1 -1.1104 6.64036 15.4495 23.4843
633 1 -1.1104 12.415 18.2214 23.633
636 1 -1.1104 12.4542 15.3545 23.6429
439 2 2.2208 -0.374439 -5.41916 16.3051
379 2 2.2208 8.0337 19.6542 27.7345
387 2 2.2208 11.1484 0.0889674 27.6709
364 2 2.2208 10.9865 8.50083 13.7583
389 2 2.2208 8.19853 2.82792 27.7206
358 2 2.2208 -0.225998 8.65133 13.7516
349 2 2.2208 2.49791 0.0254137 13.8015
372 2 2.2208 10.9424 19.7872 13.8421
751 2 2.2208 5.18729 22.687 5.38891
753 1 -1.1104 1.02238 23.7777 1.29339
754 1 -1.1104 1.26587 24.2601 3.97391
755 1 -1.1104 1.3625 21.0844 1.4312
757 2 2.2208 5.55124 25.3429 2.50146
758 1 -1.1104 1.03262 21.3159 4.09882
760 1 -1.1104 4.20177 24.0879 0.906122
761 2 2.2208 2.74055 22.5379 2.70089
763 1 -1.1104 4.01309 23.9563 3.8421
764 2 2.2208 2.53365 25.4746 5.4427
765 1 -1.1104 4.01676 21.3164 1.21814
767 1 -1.1104 3.88209 21.0582 4.09957
768 1 -1.1104 3.98606 26.955 3.72733
821 2 2.2208 -0.344349 36.6741 2.57622
1115 2 2.2208 2.56554 25.2986 -0.0940269
766 1 -1.1104 3.92053 26.9034 1.10489
756 1 -1.1104 1.11606 26.5406 1.06684
1118 2 2.2208 8.03539 42.078 -0.277998
1041 2 2.2208 -0.11741 45.1383 10.9987
1114 2 2.2208 5.33489 22.5812 -0.242007
773 1 -1.1104 6.84797 23.943 3.91965
776 1 -1.1104 6.68717 21.3064 3.85761
774 1 -1.1104 6.93867 21.0558 0.886863
772 1 -1.1104 6.92401 23.9908 0.977411
778 2 2.2208 10.9929 22.455 5.21981
780 1 -1.1104 12.2505 24.1493 0.920962
781 1 -1.1104 12.5366 23.9799 3.94993
782 1 -1.1104 12.4983 21.2474 0.937082
784 2 2.2208 10.9062 25.4167 2.391
785 1 -1.1104 12.4211 21.239 3.63652
787 1 -1.1104 9.54099 24.1676 1.12902
788 2 2.2208 8.21217 22.5558 2.4363
790 1 -1.1104 9.59184 23.9858 4.05555
791 2 2.2208 8.18494 25.3906 5.38263
792 1 -1.1104 9.76871 21.3716 1.02703
794 1 -1.1104 9.60896 21.1826 3.86407
786 1 -1.1104 12.3836 26.5354 4.01304
795 1 -1.1104 9.77123 26.7199 3.79894
783 1 -1.1104 12.3779 26.8256 1.13578
925 1 -1.1104 12.2887 23.8963 6.63358
793 1 -1.1104 9.56421 26.9465 1.04705
777 1 -1.1104 6.7755 26.7526 3.99674
775 1 -1.1104 6.82429 26.898 1.00708
893 1 -1.1104 6.57178 24.1352 6.61956
927 1 -1.1104 12.3867 26.6479 6.67114
1519 1 -1.1104 12.4885 46.5824 1.46214
1497 1 -1.1104 3.95059 46.4297 1.2377
759 1 -1.1104 1.00104 26.946 3.82012
1116 2 2.2208 5.45191 28.2362 -0.294117
752 2 2.2208 5.38152 28.179 5.50432
762 2 2.2208 2.58607 28.2092 2.53505
800 1 -1.1104 1.09687 29.4793 1.09717
803 1 -1.1104 1.16093 29.7098 3.81692
806 1 -1.1104 1.17137 32.622 1.30409
807 2 2.2208 5.29342 31.1468 2.51709
809 1 -1.1104 1.12043 32.317 4.09604
811 1 -1.1104 4.05382 29.7888 1.15286
814 1 -1.1104 3.9759 29.5392 4.17793
816 2 2.2208 2.53058 31.1118 5.45032
818 1 -1.1104 3.955 32.3202 1.17852
819 1 -1.1104 3.86382 32.463 3.82635
822 2 2.2208 -0.213902 31.1377 2.47248
769 2 2.2208 -0.346573 28.1466 5.35864
1122 2 2.2208 8.1547 25.6115 -0.335386
1126 2 2.2208 2.50869 30.8929 -0.235387
823 1 -1.1104 6.79553 29.5881 1.27008
824 1 -1.1104 6.93896 29.6892 3.94388
810 1 -1.1104 6.88578 32.5122 3.96917
825 1 -1.1104 6.9012 32.3039 1.11503
779 2 2.2208 10.9354 28.0489 5.45953
789 2 2.2208 8.27289 28.2834 2.35546
827 1 -1.1104 12.5513 29.6697 1.01856
829 1 -1.1104 12.3199 29.2587 4.05999
831 1 -1.1104 12.4979 32.285 0.999556
832 2 2.2208 11.0079 30.9095 2.52272
834 1 -1.1104 12.5191 32.2155 3.89379
835 1 -1.1104 9.64342 29.7378 0.921084
838 1 -1.1104 9.65413 29.4346 3.65337
840 2 2.2208 8.2329 31.1618 5.33603
842 1 -1.1104 9.6561 32.2806 1.09769
843 1 -1.1104 9.71125 32.4956 3.9602
983 1 -1.1104 12.1855 29.7474 6.72545
1536 1 -1.1104 9.58181 46.3903 4.11942
1125 2 2.2208 2.50081 36.6771 -0.188181
1135 2 2.2208 5.47156 39.2659 -0.407017
871 2 2.2208 -0.206424 39.3732 5.32362
1040 2 2.2208 -0.336384 42.0549 8.14672
820 2 2.2208 -0.307667 33.9175 5.38173
799 2 2.2208 5.2356 33.6915 5.44711
801 1 -1.1104 0.937584 35.488 1.10915
804 1 -1.1104 1.24839 35.2539 3.98032
808 2 2.2208 5.29981 36.2997 2.72869
812 1 -1.1104 4.10787 35.1935 1.25258
813 2 2.2208 2.50064 33.797 2.67948
815 1 -1.1104 3.96966 35.1213 4.10295
817 2 2.2208 2.43053 36.6634 5.49462
845 2 2.2208 5.4296 39.5187 5.17946
851 1 -1.1104 1.17753 38.0627 1.43271
856 1 -1.1104 1.08017 37.9237 4.05046
861 2 2.2208 2.66345 39.4982 2.48882
865 1 -1.1104 3.85752 38.0634 0.846228
867 1 -1.1104 3.88931 38.1616 3.98783
1128 2 2.2208 -0.227566 33.7418 -0.130282
1127 2 2.2208 5.43644 33.6306 -0.104491
1477 1 -1.1104 1.06465 46.4015 1.21855
858 1 -1.1104 6.64493 38.0785 4.08355