ITEM: TIMESTEP
60000
ITEM: NUMBER OF ATOMS
17700
ITEM: BOX BOUNDS pp pp pp
-4.4773863116841428e-01 2.7787738631167691e+01
-5.2613308643194063e+00 3.3334133086431399e+02
-4.4522305454002925e-01 2.7785223054540456e+01
ITEM: ATOMS id type q x y z
1 2 2.2208 5.57268 0.431676 5.30944
2 1 -1.1104 1.42594 -3.57723 1.13231
6 1 -1.1104 1.58349 -3.93095 3.83053
10 1 -1.1104 1.50304 -0.793299 1.09315
12 2 2.2208 5.61217 -2.49537 2.75952
14 1 -1.1104 1.53507 -1.05958 4.05111
16 1 -1.1104 4.43137 -3.73028 1.04004
18 2 2.2208 2.95193 0.391645 2.55267
19 1 -1.1104 4.3049 -4.0766 3.87121
21 2 2.2208 2.82565 -2.68981 5.33439
23 1 -1.1104 4.449 -0.854069 1.25742
24 1 -1.1104 4.01482 -1.12677 4.1604
326 1 -1.1104 12.5633 15.9613 12.4123
398 2 2.2208 11.4893 6.19047 -0.162498
26 2 2.2208 0.0891564 0.155563 5.39881
378 2 2.2208 11.3623 17.3551 -0.298496
386 2 2.2208 0.149652 0.348545 -0.361906
170 1 -1.1104 1.41524 -1.1096 6.80073
25 2 2.2208 0.0252644 -2.53675 2.63364
381 2 2.2208 5.79853 0.368828 -0.216761
4 1 -1.1104 7.16297 -3.89358 1.13784
8 1 -1.1104 7.1026 -3.81536 4.26838
389 2 2.2208 8.63794 3.21361 -0.401202
15 1 -1.1104 7.08079 -1.04263 4.02064
11 1 -1.1104 6.92394 -1.12252 1.377
31 2 2.2208 11.3753 0.38649 5.28384
32 1 -1.1104 12.7252 -3.80838 1.04438
34 1 -1.1104 12.8015 -3.80214 3.8865
36 1 -1.1104 12.9112 -1.12692 1.25203
37 2 2.2208 11.4915 -2.50456 2.58157
39 1 -1.1104 12.8174 -1.00075 4.11856
40 1 -1.1104 10.0483 -3.87247 1.21115
42 2 2.2208 8.53946 0.399844 2.70511
43 1 -1.1104 9.87133 -3.77411 3.96254
45 2 2.2208 8.4974 -2.5015 5.51479
47 1 -1.1104 9.92797 -1.04544 1.25814
48 1 -1.1104 10.0334 -0.98413 3.96392
171 1 -1.1104 6.98364 -1.02691 6.77209
377 2 2.2208 8.49473 14.6432 -0.174009
81 2 2.2208 0.0274868 5.99037 5.29215
3 1 -1.1104 1.33131 1.77349 1.06379
7 1 -1.1104 1.5112 1.98086 3.97205
13 2 2.2208 5.86551 3.37863 2.60516
17 1 -1.1104 4.1781 1.96888 1.28736
20 1 -1.1104 4.29956 1.85425 4.13356
22 2 2.2208 2.75834 3.18923 5.28203
54 2 2.2208 5.7947 6.18909 5.35845
56 1 -1.1104 1.37349 7.17713 1.13965
60 1 -1.1104 1.5332 4.54641 0.991027
67 1 -1.1104 1.2372 4.75118 3.76605
72 2 2.2208 2.72957 6.04097 2.51991
74 1 -1.1104 4.4258 7.62351 4.08225
76 1 -1.1104 4.35263 4.7871 0.964358
79 1 -1.1104 4.09828 4.62137 3.90527
71 1 -1.1104 4.04681 7.63564 1.2422
58 1 -1.1104 1.41942 7.64528 3.98326
51 2 2.2208 8.47482 -5.20716 2.52694
27 2 2.2208 -0.0281685 3.19718 2.33389
388 2 2.2208 8.62362 -2.3221 -0.0800089
387 2 2.2208 11.4258 0.305679 -0.321578
404 2 2.2208 5.73798 17.3799 -0.229208
5 1 -1.1104 7.13614 1.85612 1.28247
69 1 -1.1104 7.25558 4.62973 3.92333
57 1 -1.1104 6.94158 7.39948 1.13023
59 1 -1.1104 7.35294 7.44373 4.01527
9 1 -1.1104 7.06268 1.89871 4.00988
63 1 -1.1104 7.0885 4.75521 1.07243
33 1 -1.1104 12.6461 1.71388 0.98373
35 1 -1.1104 12.8032 1.89562 3.97801
38 2 2.2208 11.3538 3.29183 2.54511
41 1 -1.1104 9.93145 1.79458 1.37707
44 1 -1.1104 9.83301 1.89545 4.12368
46 2 2.2208 8.52947 3.17623 5.46796
84 2 2.2208 11.2988 6.15765 5.4915
88 1 -1.1104 12.7367 4.76496 0.969127
92 1 -1.1104 12.6547 4.77877 3.72113
95 2 2.2208 8.42855 5.99553 2.60463
99 1 -1.1104 9.99212 4.83279 1.24759
102 1 -1.1104 9.91425 4.57762 4.04501
97 1 -1.1104 10.0492 7.3005 4.0175
86 1 -1.1104 12.5501 7.74553 1.1255
94 1 -1.1104 9.90722 7.43974 1.13221
87 1 -1.1104 12.6515 7.6052 4.20118
390 2 2.2208 11.3596 -5.26253 -0.253429
209 1 -1.1104 9.71796 1.85896 6.8023
394 2 2.2208 2.79332 8.94013 -0.328925
399 2 2.2208 8.55321 8.91608 -0.401784
395 2 2.2208 5.62762 11.8843 -0.39872
55 2 2.2208 5.39127 11.6047 5.45554
61 1 -1.1104 1.3842 10.1865 1.0696
66 2 2.2208 5.46776 8.89894 2.52084
68 1 -1.1104 1.25714 10.3565 4.03725
73 2 2.2208 2.94512 11.6888 2.44845
75 2 2.2208 2.60703 8.94517 5.48078
77 1 -1.1104 4.1976 10.3467 1.23323
80 1 -1.1104 4.19229 10.4705 3.88932
107 1 -1.1104 1.63455 12.9224 1.04372
113 1 -1.1104 1.44102 13.1647 3.88311
123 1 -1.1104 4.31523 13.3565 1.23029
128 1 -1.1104 4.25302 13.4204 3.9603
83 2 2.2208 0.0224465 11.8794 5.2108
130 2 2.2208 2.74485 14.627 5.38984
82 2 2.2208 -0.128857 8.75129 2.50098
64 1 -1.1104 6.9217 10.4482 1.06385
110 1 -1.1104 7.06383 13.2578 0.972654
70 1 -1.1104 6.88403 10.3645 3.96286
115 1 -1.1104 6.86708 13.0153 3.94499
85 2 2.2208 11.3231 11.6943 5.35159
89 1 -1.1104 12.7907 10.3294 0.903949
91 2 2.2208 11.0856 8.89947 2.74557
93 1 -1.1104 12.697 10.3657 3.8488
96 2 2.2208 8.36736 11.6711 2.54291
98 2 2.2208 8.23021 8.84111 5.60639
100 1 -1.1104 9.76964 10.4048 1.19682
103 1 -1.1104 9.64652 9.98719 4.23011
142 1 -1.1104 12.7496 13.052 1.31686
146 1 -1.1104 12.7752 13.0719 4.00196
153 1 -1.1104 9.74806 13.0389 1.21085
158 1 -1.1104 9.92466 13.1019 4.13774
160 2 2.2208 8.25616 14.3863 5.34302
400 2 2.2208 11.2697 11.6399 -0.0523033
405 2 2.2208 2.65422 20.3218 -0.386977
149 1 -1.1104 12.6794 16.0123 6.94923
135 2 2.2208 0.219883 14.546 2.42462
136 2 2.2208 -0.107052 20.2315 2.26209
119 2 2.2208 5.7188 14.6184 2.52973
106 2 2.2208 5.4904 17.4701 5.34375
109 1 -1.1104 1.28724 18.8432 0.848322
114 1 -1.1104 1.30327 18.8341 3.60219
116 1 -1.1104 1.48037 15.8837 0.949646
120 2 2.2208 5.57802 20.3908 2.49
121 1 -1.1104 1.46624 15.9435 3.82651
125 1 -1.1104 3.85417 18.9004 1.0695
127 2 2.2208 2.83944 17.3671 2.42816
129 1 -1.1104 4.21455 18.8424 4.07553
131 2 2.2208 2.73064 20.268 5.21497
132 1 -1.1104 4.40407 16.0366 1.22024
134 1 -1.1104 4.42277 16.0585 3.8523
379 2 2.2208 8.60823 20.3487 -0.335674
137 2 2.2208 -0.104797 17.4507 5.25734
117 1 -1.1104 1.57972 16.0731 6.50814
382 2 2.2208 2.90136 -2.49186 -0.206711
150 2 2.2208 11.3003 14.5774 2.5059
139 1 -1.1104 7.00772 18.8054 3.84045
138 1 -1.1104 6.83233 18.9613 1.02794
140 1 -1.1104 7.16915 16.0941 1.12077
122 1 -1.1104 7.20297 15.7844 3.93676
231 2 2.2208 8.28937 -5.2625 8.2579
141 2 2.2208 11.192 17.3152 5.41679
144 1 -1.1104 12.8134 18.8431 1.12339
147 1 -1.1104 12.9376 18.9312 3.72496
148 1 -1.1104 12.8573 15.9412 1.28105
151 2 2.2208 11.2188 20.1477 2.44071
152 1 -1.1104 12.8527 16.0628 4.15324
155 1 -1.1104 9.63565 18.862 1.10682
157 2 2.2208 8.46607 17.4334 2.52739
159 1 -1.1104 10.1421 18.7873 3.8716
161 2 2.2208 8.4402 20.297 5.30546
162 1 -1.1104 9.97927 15.9992 1.27714
164 1 -1.1104 9.88528 15.9754 3.91427
331 2 2.2208 11.3003 17.0906 11.0877
325 2 2.2208 11.2588 14.5656 8.2093
200 2 2.2208 0.0623465 -2.52881 8.19882
201 2 2.2208 -0.0480372 0.595967 10.9822
174 1 -1.1104 4.02923 -1.10526 6.89292
166 1 -1.1104 1.38985 -4.03386 6.72568
172 1 -1.1104 4.26249 -3.881 6.62178
175 2 2.2208 5.72952 0.423098 11.0586
176 1 -1.1104 1.4204 -3.81888 12.3777
180 1 -1.1104 1.26322 -4.19778 9.57044
184 1 -1.1104 1.30802 -0.880552 12.4123
186 2 2.2208 5.49774 -2.37795 8.1152
188 1 -1.1104 1.33146 -1.22272 9.6075
190 1 -1.1104 4.22938 -3.93753 12.1572
192 2 2.2208 2.81764 0.509223 8.31822
193 1 -1.1104 4.15334 -4.12337 9.42184
195 2 2.2208 2.66665 -2.6737 10.7861
197 1 -1.1104 4.41668 -1.08279 12.5137
198 1 -1.1104 4.21432 -0.846738 9.75268
288 1 -1.1104 7.23479 18.9227 9.34234
118 1 -1.1104 7.14579 15.7932 6.81388
205 1 -1.1104 12.7736 -3.88559 6.79577
168 1 -1.1104 6.98458 -3.87361 6.92675
210 1 -1.1104 9.9558 -1.12276 6.7574
208 1 -1.1104 9.81384 -3.9374 6.89202
207 1 -1.1104 12.7187 -0.899922 6.86581
185 1 -1.1104 7.25088 -1.06462 12.3772
189 1 -1.1104 7.17605 -1.0126 9.47766
182 1 -1.1104 6.87253 -3.86916 9.7154
178 1 -1.1104 7.05472 -4.17291 12.5449
211 2 2.2208 11.3667 0.329558 10.9132
212 1 -1.1104 12.8912 -4.07242 12.5
214 1 -1.1104 12.624 -3.76738 9.6953
216 1 -1.1104 12.6836 -1.15676 12.2625
217 2 2.2208 11.2963 -2.43378 8.18444
219 1 -1.1104 12.7501 -1.04312 9.67682
220 1 -1.1104 10.0898 -3.97495 12.5583
222 2 2.2208 8.48794 0.372365 8.18427
223 1 -1.1104 9.74096 -3.99794 9.79707
225 2 2.2208 8.48931 -2.55414 11.1179
227 1 -1.1104 9.97563 -1.01147 12.5666
228 1 -1.1104 10.127 -1.1983 9.60925
112 1 -1.1104 7.10456 18.898 6.6135
163 1 -1.1104 9.78149 15.9351 6.79546
344 2 2.2208 -0.121011 6.07529 11.0197
173 1 -1.1104 4.34016 1.64492 6.83217
199 2 2.2208 0.0186601 3.24378 7.96006
238 1 -1.1104 4.16391 7.58327 6.85232
239 1 -1.1104 4.11384 4.49558 6.58687
236 1 -1.1104 1.47261 4.59235 6.68575
167 1 -1.1104 1.33076 1.70748 6.64028
234 1 -1.1104 1.25056 7.65934 6.75277
177 1 -1.1104 1.39701 1.88108 12.5063
181 1 -1.1104 1.11064 1.89576 9.4821
187 2 2.2208 5.56547 3.07985 8.13149
191 1 -1.1104 4.08363 1.74126 12.4553
194 1 -1.1104 4.16329 1.94126 9.60642
196 2 2.2208 2.68696 3.28089 11.0592
240 2 2.2208 5.56682 6.02236 10.8694
242 1 -1.1104 1.25606 7.51407 12.346
244 1 -1.1104 1.38298 7.39054 9.78791
246 1 -1.1104 1.2291 4.66254 12.2543
251 1 -1.1104 1.33533 4.69563 9.11275
255 1 -1.1104 4.04407 7.14409 12.206
256 2 2.2208 2.83065 6.10649 8.20932
258 1 -1.1104 4.16242 7.51881 9.51332
260 1 -1.1104 4.1712 4.517 12.2157
262 1 -1.1104 4.21087 4.59055 9.48497
237 1 -1.1104 7.1706 4.65276 6.48598
253 1 -1.1104 7.06297 4.42048 9.58796
243 1 -1.1104 6.86559 7.66307 12.4507
245 1 -1.1104 6.90988 7.45885 9.74963
169 1 -1.1104 7.15036 1.94727 6.78514
265 1 -1.1104 12.5927 7.50404 7.03207
266 1 -1.1104 12.7039 4.81911 6.84846
267 1 -1.1104 9.65874 7.55692 6.99875
235 1 -1.1104 7.02868 7.34443 6.97745
269 1 -1.1104 9.83063 4.76954 6.79926
248 1 -1.1104 7.27583 4.7539 12.4153
179 1 -1.1104 7.14467 1.94196 12.3111
206 1 -1.1104 12.7274 1.8437 6.59994
183 1 -1.1104 7.07047 1.76974 9.50047
213 1 -1.1104 12.9303 1.82221 12.4103
215 1 -1.1104 12.633 1.7663 9.51075
218 2 2.2208 11.3743 3.19792 8.1704
221 1 -1.1104 10.0683 1.79966 12.439
224 1 -1.1104 9.8976 1.56805 9.65326
226 2 2.2208 8.46572 3.19065 10.9345
268 1 -1.1104 9.79414 4.43217 9.62484
271 1 -1.1104 9.91053 4.6966 12.3681
275 2 2.2208 8.45539 5.97956 8.36778
276 2 2.2208 11.2614 6.04688 11.1044
278 1 -1.1104 12.6222 7.33433 12.514
279 1 -1.1104 12.784 7.358 9.80865
280 1 -1.1104 12.6656 4.42671 12.4108
283 1 -1.1104 12.4424 4.47434 9.6483
285 1 -1.1104 9.72193 7.49349 12.5725
273 1 -1.1104 9.87863 7.39317 9.75807
78 1 -1.1104 4.18057 10.1869 6.7906
124 1 -1.1104 3.9925 13.0089 6.72436
343 2 2.2208 0.00913146 8.84881 8.1745
342 2 2.2208 -0.19666 11.5811 10.9028
108 1 -1.1104 1.137 13.206 6.62743
62 1 -1.1104 1.3468 10.333 6.82324
287 1 -1.1104 4.08072 13.2831 12.5288
305 1 -1.1104 4.03119 13.1183 9.48774
299 1 -1.1104 1.34816 13.1847 12.3741
294 1 -1.1104 1.23598 13.04 9.48793
241 2 2.2208 5.64552 11.832 11.1182
247 1 -1.1104 1.36025 10.2966 12.3949
250 2 2.2208 5.67213 8.83899 8.14687
252 1 -1.1104 1.39973 10.2411 9.48324
257 2 2.2208 2.9019 11.5618 8.30999
259 2 2.2208 2.78237 8.84062 11.0634
261 1 -1.1104 4.20383 10.1933 12.3745
263 1 -1.1104 4.14303 10.2494 9.54568
65 1 -1.1104 6.8628 10.2414 6.84259
90 1 -1.1104 12.4244 10.2982 6.91655
290 1 -1.1104 6.93993 13.1982 9.76415
254 1 -1.1104 7.08466 10.2986 9.6856
101 1 -1.1104 9.55512 10.2805 6.93515
154 1 -1.1104 9.80902 13.1063 6.9195
111 1 -1.1104 6.82079 13.0874 6.71706
297 1 -1.1104 6.978 13.0637 12.5263
249 1 -1.1104 7.01029 10.3899 12.2017
143 1 -1.1104 12.7815 13.132 6.83749
330 1 -1.1104 12.6494 13.1653 12.388
328 1 -1.1104 12.4904 13.0252 9.68922
322 1 -1.1104 9.8414 13.0986 12.4936
319 1 -1.1104 9.68869 13.0975 9.65704
264 1 -1.1104 9.92093 10.1506 9.52185
270 1 -1.1104 9.85346 10.0828 12.5457
272 2 2.2208 8.49198 8.88737 11.134
274 2 2.2208 8.45742 11.7537 8.22716
277 2 2.2208 11.2636 11.6111 11.1042
281 1 -1.1104 12.7824 10.2589 12.1833
282 2 2.2208 11.1324 8.87409 8.27568
284 1 -1.1104 12.6736 10.1962 9.51261
295 2 2.2208 5.55207 14.4436 8.02072
302 1 -1.1104 1.19607 18.9118 6.63084
126 1 -1.1104 4.14773 18.6719 6.76439
133 1 -1.1104 4.23016 15.9967 6.73083
310 2 2.2208 2.69956 14.5634 10.9877
309 2 2.2208 2.6822 20.1626 10.9984
308 1 -1.1104 4.14006 16.1659 12.3738
307 1 -1.1104 1.28968 15.9766 12.3021
304 1 -1.1104 4.23626 15.7197 9.68273
303 2 2.2208 2.67347 17.5109 8.11356
301 1 -1.1104 4.20612 18.5777 9.55127
300 2 2.2208 5.61062 17.1796 11.0606
298 1 -1.1104 1.35244 18.6733 12.2986
293 2 2.2208 5.56099 20.1574 8.18256
292 1 -1.1104 1.312 16.0875 9.46529
291 1 -1.1104 1.48577 19.0092 9.42877
286 1 -1.1104 4.10982 18.8163 12.4185
311 2 2.2208 0.123682 20.3833 7.98383
313 2 2.2208 -0.100555 14.3293 8.19293
312 2 2.2208 -0.0334754 17.5238 10.811
315 1 -1.1104 9.92319 15.8897 12.4625
289 1 -1.1104 6.94732 16.0608 9.51088
314 1 -1.1104 9.82671 15.6609 9.5778
317 2 2.2208 8.19351 14.4458 11.1047
145 1 -1.1104 12.7833 18.731 6.55053
318 1 -1.1104 10.0392 18.667 9.69186
329 1 -1.1104 12.6401 18.7664 12.4655
320 2 2.2208 8.45778 17.3835 8.12964
156 1 -1.1104 9.84949 18.7901 6.65991
296 1 -1.1104 6.8208 18.9714 12.4811
306 1 -1.1104 6.99217 15.8598 12.4531
327 1 -1.1104 12.8093 18.7041 9.36426
321 1 -1.1104 9.74763 18.7848 12.1745
316 2 2.2208 8.49558 20.109 10.8786
323 1 -1.1104 12.7073 15.8024 9.67903
324 2 2.2208 11.1548 20.165 8.10479
384 2 2.2208 -0.0300926 -5.15876 -0.317873
396 2 2.2208 -0.0483908 11.6893 -0.291436
401 2 2.2208 -0.119038 17.4015 -0.453899
385 2 2.2208 5.57856 -5.17008 -0.0822172
29 2 2.2208 5.59323 -5.22179 5.37843
393 2 2.2208 5.82236 6.12496 -0.353106
406 2 2.2208 5.41461 0.364467 16.3671
407 1 -1.1104 1.44316 -3.8752 17.74
411 1 -1.1104 1.29089 -3.87633 15.1153
419 1 -1.1104 1.2252 -1.04753 18.3228
421 2 2.2208 5.69063 -2.44691 19.379
423 1 -1.1104 1.16165 -1.0571 15.2907
427 1 -1.1104 4.27584 -4.12845 17.9868
429 2 2.2208 2.85605 0.45105 19.5105
430 1 -1.1104 3.94152 -3.88453 15.1547
434 2 2.2208 2.64535 -2.46817 16.5761
436 1 -1.1104 4.12246 -0.982177 17.8815
437 1 -1.1104 4.08116 -1.175 15.1859
442 2 2.2208 -0.0755267 0.409277 16.6118
441 2 2.2208 2.767 -5.18155 19.4294
443 2 2.2208 -0.198963 -2.3883 19.3759
438 1 -1.1104 4.11562 -1.34271 20.6226
371 2 2.2208 5.6028 14.5481 13.9195
409 1 -1.1104 7.14784 -3.772 18.2517
425 1 -1.1104 7.05509 -1.29813 15.2372
356 2 2.2208 11.3885 -2.6178 13.8941
420 1 -1.1104 6.89115 -1.06201 17.9314
415 1 -1.1104 6.82862 -3.89407 15.4331
449 2 2.2208 11.0173 0.39071 16.8868
450 1 -1.1104 12.6907 -3.91302 18.0468
452 1 -1.1104 12.6165 -3.93079 15.2402
456 1 -1.1104 12.7345 -0.992866 18.0248
457 2 2.2208 11.479 -2.47202 19.3546
459 1 -1.1104 12.6378 -1.22077 15.2139
461 1 -1.1104 9.89903 -4.07525 17.7864
463 2 2.2208 8.45222 0.249573 19.535
464 1 -1.1104 9.79061 -3.90774 15.2372
468 2 2.2208 8.4507 -2.61246 16.6552
470 1 -1.1104 9.72469 -1.18084 18.1934
471 1 -1.1104 9.77002 -1.16556 15.3479
363 2 2.2208 8.45445 6.09107 13.985
704 1 -1.1104 9.97428 15.772 26.5705
460 1 -1.1104 12.7677 -1.12862 20.7708
481 2 2.2208 -0.151334 6.10754 16.6466
408 1 -1.1104 1.46079 1.91179 17.9204
413 1 -1.1104 1.24199 1.63576 15.0645
422 2 2.2208 5.62401 3.18612 19.2552
428 1 -1.1104 4.23633 1.90309 18.0561
432 1 -1.1104 4.15687 1.91305 15.3385
435 2 2.2208 2.66947 3.34153 16.3888
482 2 2.2208 5.62553 5.96106 16.6668
490 1 -1.1104 1.4501 4.61221 17.8681
495 1 -1.1104 1.16337 4.76924 15.2098
503 1 -1.1104 4.29481 7.54961 17.9989
504 2 2.2208 2.79004 6.10527 19.3894
509 1 -1.1104 4.07751 4.71581 17.7004
511 1 -1.1104 4.06881 4.52159 14.8835
484 1 -1.1104 1.26146 7.52004 18.0544
486 1 -1.1104 1.36676 7.34836 15.3187
506 1 -1.1104 4.03042 7.41041 15.3095
636 1 -1.1104 12.525 16.1101 23.7718
544 2 2.2208 -0.001088 3.19154 19.3908
635 1 -1.1104 12.6459 18.6842 26.4941
358 2 2.2208 -0.287685 8.83249 13.7493
516 2 2.2208 -0.00306591 11.6016 16.6017
488 1 -1.1104 6.84978 7.45215 15.2394
417 1 -1.1104 7.02245 1.6737 15.2504
485 1 -1.1104 7.0333 7.42194 18.2474
410 1 -1.1104 6.8893 1.86509 18.0485
492 1 -1.1104 6.94053 4.63403 18.0848
499 1 -1.1104 7.06116 4.64991 15.2914
451 1 -1.1104 12.5178 1.71104 18.0046
454 1 -1.1104 12.4142 1.63975 15.1371
458 2 2.2208 11.2518 3.18143 19.5206
462 1 -1.1104 9.79917 1.79118 18.3984
466 1 -1.1104 9.68092 1.89188 15.2685
469 2 2.2208 8.27846 3.1671 16.678
518 2 2.2208 11.2181 6.0666 16.9089
521 1 -1.1104 12.7046 7.24088 15.3642
523 1 -1.1104 12.5459 4.5443 18.1238
526 1 -1.1104 12.2936 4.47323 15.6446
530 1 -1.1104 9.70165 7.40924 18.1338
531 2 2.2208 8.33851 6.08105 19.4908
536 1 -1.1104 9.80206 4.51975 18.0773
538 1 -1.1104 9.68441 4.51101 15.2665
520 1 -1.1104 12.6561 7.33283 18.1455
533 1 -1.1104 9.744 7.49841 15.3581
357 2 2.2208 11.2367 3.17925 13.8751
359 2 2.2208 2.70431 6.03624 13.779
372 2 2.2208 10.9545 20.3144 13.7409
515 2 2.2208 -0.320117 8.87449 19.6348
483 2 2.2208 5.5197 11.4459 16.7755
491 1 -1.1104 1.27229 10.2122 17.9597
494 2 2.2208 5.46911 8.8483 19.5669
497 1 -1.1104 1.48221 10.3078 15.1216
505 2 2.2208 2.5365 11.7127 19.5148
508 2 2.2208 2.7458 8.77508 16.6668
510 1 -1.1104 4.01408 10.2438 18.0916
513 1 -1.1104 4.30986 10.3287 15.097
546 1 -1.1104 1.30592 13.0098 17.873
550 1 -1.1104 1.34756 13.1033 15.2087
566 1 -1.1104 4.05407 13.2934 18.1648
569 1 -1.1104 4.27018 13.0327 15.2556
361 2 2.2208 2.79539 11.7701 13.7363
364 2 2.2208 11.1875 8.9122 13.7692
548 1 -1.1104 6.94979 12.8476 18.0958
554 1 -1.1104 6.92271 13.3122 15.2151
501 1 -1.1104 7.02484 10.3186 15.3144
493 1 -1.1104 6.79497 10.1477 18.0896
519 2 2.2208 11.1121 11.7096 16.8119
524 1 -1.1104 12.5697 10.0283 17.9816
525 2 2.2208 11.2901 8.91059 19.6445
528 1 -1.1104 12.5238 10.2783 15.0896
532 2 2.2208 8.32472 11.6969 19.6325
535 2 2.2208 8.30905 8.89683 16.8627
537 1 -1.1104 9.74824 10.3719 18.0572
540 1 -1.1104 9.73959 10.1928 15.3856
582 1 -1.1104 12.5843 13.1116 18.1751
584 1 -1.1104 12.5883 13.2068 15.1531
593 1 -1.1104 9.63518 13.211 18.2669
596 1 -1.1104 9.86357 12.8361 15.2244
355 2 2.2208 8.69953 0.353083 13.6769
365 2 2.2208 8.42763 11.729 13.9096
447 2 2.2208 0.0606001 17.2472 16.6506
698 1 -1.1104 9.89624 18.8998 26.4983
448 2 2.2208 -0.0667785 14.5586 19.3055
573 2 2.2208 2.73206 14.6665 16.4985
560 2 2.2208 5.323 14.3185 19.5703
545 2 2.2208 5.50936 17.3906 16.7794
547 1 -1.1104 1.31208 18.6546 18.1191
552 1 -1.1104 1.42724 18.5283 15.1855
558 1 -1.1104 1.3632 15.7989 18.0204
561 2 2.2208 5.52098 20.2868 19.5251
562 1 -1.1104 1.51778 15.7656 15.1097
567 1 -1.1104 3.95694 18.5734 18.1776
568 2 2.2208 2.75657 17.3196 19.6068
571 1 -1.1104 4.20721 18.9473 15.3936
574 2 2.2208 2.61504 19.9293 16.5852
575 1 -1.1104 4.2744 15.8129 17.9854
576 1 -1.1104 4.24137 16.0489 15.1317
367 2 2.2208 -0.160991 3.34745 13.9409
476 2 2.2208 -0.248603 20.3446 19.2856
553 1 -1.1104 1.19354 19.07 20.9381
559 1 -1.1104 6.90818 15.9318 17.9988
368 2 2.2208 2.79817 17.3961 13.7986
637 2 2.2208 -0.0295599 -5.06689 22.2089
665 1 -1.1104 9.85622 18.9649 23.732
556 1 -1.1104 7.17904 18.9176 15.2105
549 1 -1.1104 6.76741 18.8691 17.9604
564 1 -1.1104 7.01962 16.2258 15.2319
589 2 2.2208 11.2617 14.6573 19.4982
600 2 2.2208 8.31024 14.4276 16.858
581 2 2.2208 11.0962 17.2816 16.4937
583 1 -1.1104 12.5024 18.5596 17.8995
586 1 -1.1104 12.6624 18.942 15.0914
588 1 -1.1104 12.7243 15.8171 17.8864
590 2 2.2208 11.1656 20.2406 19.7074
591 1 -1.1104 12.6147 16.2855 15.2655
594 1 -1.1104 9.71376 18.885 17.7783
595 2 2.2208 8.4073 17.3942 19.4573
598 1 -1.1104 9.84895 18.5763 15.0149
601 2 2.2208 8.24628 20.1836 16.6258
602 1 -1.1104 9.75441 16.0256 18.1228
603 1 -1.1104 9.98437 15.563 15.5915
565 1 -1.1104 6.65973 15.8569 20.8273
373 2 2.2208 11.2552 14.6417 13.8348
376 2 2.2208 8.40022 17.4177 13.7653
348 2 2.2208 5.60639 -2.57902 13.8471
431 1 -1.1104 4.37876 -4.04155 21.0643
424 1 -1.1104 1.42119 -0.906527 20.9432
412 1 -1.1104 1.51417 -3.81552 20.8139
609 2 2.2208 5.7929 0.204624 22.471
610 1 -1.1104 1.49947 -3.70252 23.6645
614 1 -1.1104 1.50125 -3.96467 26.5873
618 1 -1.1104 1.39096 -0.946215 23.8027
620 2 2.2208 5.72383 -2.5925 25.1591
622 1 -1.1104 1.63064 -1.1809 26.4744
624 1 -1.1104 4.25202 -3.96797 23.7449
626 2 2.2208 3.03573 0.19698 25.1974
627 1 -1.1104 4.29074 -3.77567 26.5937
629 2 2.2208 2.88519 -2.47209 22.3125
631 1 -1.1104 4.13741 -1.0792 23.6012
632 1 -1.1104 4.47261 -1.03558 26.5781
642 2 2.2208 0.120413 -2.43812 25.1271
643 2 2.2208 0.187207 0.384541 22.2107
426 1 -1.1104 6.93779 -1.15833 20.9373
587 1 -1.1104 12.5165 18.9892 20.7297
416 1 -1.1104 7.20099 -4.14116 21.0811
623 1 -1.1104 7.3274 -0.956832 26.6813
619 1 -1.1104 6.79436 -1.15724 23.9086
612 1 -1.1104 7.06648 -3.98127 23.6524
616 1 -1.1104 7.24678 -3.85855 26.4414
453 1 -1.1104 13.0223 -3.94051 20.8523
472 1 -1.1104 9.58283 -1.12637 20.857
465 1 -1.1104 10.2145 -3.96324 20.8392
645 2 2.2208 11.1696 0.224632 22.2419
646 1 -1.1104 12.8855 -3.89874 23.5299
648 1 -1.1104 12.563 -3.96267 26.4795
650 1 -1.1104 12.699 -1.13696 23.8658
651 2 2.2208 11.3994 -2.51156 25.1111
653 1 -1.1104 12.7927 -1.11933 26.474
654 1 -1.1104 9.90203 -4.05108 23.584
656 2 2.2208 8.59404 0.304314 25.1736
657 1 -1.1104 9.92474 -3.94529 26.561
659 2 2.2208 8.38184 -2.67003 22.1939
661 1 -1.1104 9.75351 -1.11405 23.69
662 1 -1.1104 10.1446 -1.16485 26.4845
433 1 -1.1104 4.09368 1.56244 21.1408
414 1 -1.1104 1.46074 1.81493 20.8458
512 1 -1.1104 4.20823 4.56762 20.6353
444 2 2.2208 -0.174861 6.15203 22.3306
496 1 -1.1104 1.39657 4.78563 20.54
487 1 -1.1104 1.26688 7.41858 20.8454
507 1 -1.1104 4.07992 7.60021 20.7792
611 1 -1.1104 1.68884 2.00308 23.7267
615 1 -1.1104 1.60323 1.75465 26.503
621 2 2.2208 5.69372 3.2629 25.1649
625 1 -1.1104 4.49529 1.69833 24.0082
628 1 -1.1104 4.37548 2.02577 26.6617
630 2 2.2208 2.74332 3.36369 22.1089
674 2 2.2208 5.60228 5.93953 22.2032
678 1 -1.1104 1.40803 7.52801 26.5342
680 1 -1.1104 1.40951 4.8079 23.4973
685 1 -1.1104 1.66552 4.64362 26.4066
689 1 -1.1104 4.35165 7.42072 23.718
690 2 2.2208 2.95103 6.16636 25.0683
692 1 -1.1104 4.16603 7.66984 26.7592
694 1 -1.1104 3.99851 4.75889 23.6835
696 1 -1.1104 4.56671 4.89143 26.3355
676 1 -1.1104 1.45364 7.38006 23.7764
644 2 2.2208 0.155731 3.24395 24.8672
534 1 -1.1104 9.65709 7.48095 20.8828
522 1 -1.1104 12.5805 7.35828 20.989
467 1 -1.1104 9.92961 1.71441 20.9927
500 1 -1.1104 7.07509 4.40825 20.8409
682 1 -1.1104 6.79027 4.62527 23.7544
617 1 -1.1104 7.28973 1.46321 26.6731
613 1 -1.1104 7.02991 1.7312 23.8542
418 1 -1.1104 7.30217 1.50214 20.9132
677 1 -1.1104 7.14332 7.31495 23.6899
679 1 -1.1104 7.07787 7.4751 26.4243
687 1 -1.1104 7.46623 4.43399 26.4491
489 1 -1.1104 6.95329 7.49223 20.984
527 1 -1.1104 12.7391 4.44552 20.7594
539 1 -1.1104 10.0344 4.67967 20.7557
455 1 -1.1104 12.7727 1.68979 20.9617
647 1 -1.1104 12.8216 1.74249 23.6358
649 1 -1.1104 12.9158 1.75079 26.6398
652 2 2.2208 11.3459 3.21216 25.2308
655 1 -1.1104 9.97791 1.60704 23.6591
658 1 -1.1104 9.98961 1.80373 26.6626
660 2 2.2208 8.46694 2.97982 22.3022
706 1 -1.1104 10.008 4.7565 26.6194
708 1 -1.1104 9.59889 4.5137 23.5038
712 2 2.2208 8.59304 5.84477 24.906
713 2 2.2208 11.1432 6.0412 22.0793
715 1 -1.1104 12.5138 7.35412 23.6199
717 1 -1.1104 12.3648 4.65263 23.518
720 1 -1.1104 12.8549 4.83761 26.315
710 1 -1.1104 9.8939 7.18515 26.4138
722 1 -1.1104 9.72161 7.69777 23.8563
716 1 -1.1104 12.7224 7.57662 26.4526
703 2 2.2208 -0.130753 11.6733 22.3557
570 1 -1.1104 3.98643 12.978 21.0923
702 2 2.2208 0.103638 8.85708 24.9646
514 1 -1.1104 3.842 10.3246 20.8191
498 1 -1.1104 1.18382 10.3394 20.9674
551 1 -1.1104 1.15269 13.271 20.8423
746 1 -1.1104 4.28346 13.1804 26.5855
675 2 2.2208 5.55659 11.5488 22.2654
681 1 -1.1104 1.49632 10.1049 23.7316
684 2 2.2208 5.81479 8.8476 25.0339
686 1 -1.1104 1.37087 10.4142 26.2351
691 2 2.2208 2.91638 11.801 25.0068
693 2 2.2208 2.64612 8.64976 22.3216
695 1 -1.1104 4.32751 10.073 23.7728
697 1 -1.1104 4.37325 10.3504 26.4418
731 1 -1.1104 4.35276 12.8794 23.8216
735 1 -1.1104 1.32442 13.151 26.3552
741 1 -1.1104 1.48485 12.7948 23.6034
541 1 -1.1104 9.76542 10.2842 20.7576
555 1 -1.1104 6.82184 13.0973 20.7977
585 1 -1.1104 12.6204 13.2424 21.1505
597 1 -1.1104 9.68573 12.9638 21.1363
502 1 -1.1104 6.80619 10.1259 21.0251
688 1 -1.1104 7.3847 10.4966 26.663
683 1 -1.1104 7.1434 10.1674 23.7811
730 1 -1.1104 6.9889 13.2133 26.4476
739 1 -1.1104 7.1816 13.3566 23.6701
529 1 -1.1104 12.6322 10.2256 20.9941
673 1 -1.1104 9.80928 13.2002 26.6812
664 1 -1.1104 9.69051 13.152 23.5745
634 1 -1.1104 12.7264 12.8401 26.5835
705 1 -1.1104 10.0437 10.2444 26.5697
707 1 -1.1104 9.8447 10.3879 23.5647
709 2 2.2208 8.31526 8.85591 22.1855
711 2 2.2208 8.61491 11.8715 25.2873
714 2 2.2208 11.1236 11.629 22.2783
718 1 -1.1104 12.4421 10.1877 23.5476
719 2 2.2208 11.1381 8.92772 24.9535
721 1 -1.1104 12.7784 10.1941 26.3093
608 1 -1.1104 12.5693 13.2047 23.9144
383 2 2.2208 2.8929 3.2866 27.8076
725 2 2.2208 -0.076343 14.5638 25.1295
724 2 2.2208 -0.0858587 20.1023 25.0117
563 1 -1.1104 1.33815 16.0114 20.815
572 1 -1.1104 4.31493 18.9084 20.8371
577 1 -1.1104 3.91481 15.8964 20.9189
738 2 2.2208 5.7579 14.6629 25.2844
727 2 2.2208 2.74085 14.4101 22.4344
750 2 2.2208 2.62982 20.3136 22.2468
749 1 -1.1104 4.23125 15.7396 23.6483
748 1 -1.1104 1.27337 16.0483 23.7083
745 1 -1.1104 4.24466 16.2888 26.6289
729 1 -1.1104 4.18619 18.7229 23.688
733 1 -1.1104 1.31316 18.6398 26.3564
734 1 -1.1104 1.30529 15.8398 26.4772
737 2 2.2208 5.55675 20.259 24.9017
740 1 -1.1104 1.2799 18.8704 23.5238
742 2 2.2208 5.50461 17.4507 22.2916
743 1 -1.1104 4.139 19.0387 26.5876
744 2 2.2208 2.87808 17.4263 24.9703
723 2 2.2208 -0.0549495 17.4716 22.0364
736 1 -1.1104 6.92851 18.7656 23.6505
701 1 -1.1104 9.51139 16.2663 23.6189
699 2 2.2208 8.23269 14.5693 22.2482
557 1 -1.1104 7.09108 18.8992 20.8672
638 2 2.2208 11.44 14.46 25.3611
633 1 -1.1104 12.7322 18.8269 23.4885
732 1 -1.1104 7.19673 16.1474 26.7557
663 1 -1.1104 12.8798 15.8734 26.6916
604 1 -1.1104 9.76931 15.9909 20.9275
592 1 -1.1104 12.6582 16.1078 21.0684
599 1 -1.1104 9.71114 18.7504 20.8037
700 2 2.2208 8.45293 20.4297 22.3311
641 2 2.2208 11.3604 20.004 25.0807
667 2 2.2208 8.35061 17.577 25.0832
607 2 2.2208 11.1698 17.3485 22.3534
670 1 -1.1104 7.19947 18.9745 26.4688
747 1 -1.1104 6.87997 15.9784 23.7518
360 2 2.2208 5.47249 8.94068 13.6839
369 2 2.2208 5.40287 20.2834 13.8977
640 2 2.2208 2.79009 -5.22907 25.0493
349 2 2.2208 2.50972 0.252148 13.7803
397 2 2.2208 0.0721427 6.00623 27.7558
352 2 2.2208 5.67122 3.28724 13.9421
347 2 2.2208 2.66702 -5.19128 13.7784
353 2 2.2208 8.52974 -5.22832 13.7571
350 2 2.2208 -0.302827 20.2014 13.7321
403 2 2.2208 3.02847 14.6703 27.7301
346 2 2.2208 -0.307066 -2.39999 13.7914
351 2 2.2208 0.135141 14.4243 13.7444
751 2 2.2208 5.64454 23.1408 5.25321
753 1 -1.1104 1.30881 24.434 0.940526
754 1 -1.1104 1.18757 24.4722 3.66316
755 1 -1.1104 1.3189 21.6044 1.05857
757 2 2.2208 5.62516 25.9165 2.447
758 1 -1.1104 1.29289 21.6632 3.80362
760 1 -1.1104 4.29116 24.6101 1.03022
761 2 2.2208 2.75118 23.0532 2.42004
763 1 -1.1104 4.02969 24.4764 3.81916
764 2 2.2208 2.60803 25.911 5.29626
765 1 -1.1104 4.08259 21.7931 1.12679
767 1 -1.1104 4.04444 21.4742 3.87396
759 1 -1.1104 1.23675 27.1397 3.88186
756 1 -1.1104 1.33124 27.3634 0.920276
766 1 -1.1104 4.09097 27.2947 1.02628
768 1 -1.1104 4.07759 27.2853 3.67905
1042 2 2.2208 -0.169111 40.0139 11.0394
771 2 2.2208 -0.0539907 26.0047 2.33823
770 2 2.2208 -0.119478 23.046 5.26914
777 1 -1.1104 6.87074 27.3825 3.8482
1126 2 2.2208 2.69775 31.5891 -0.408082
898 1 -1.1104 4.23431 24.6387 6.66367
895 1 -1.1104 1.08578 27.1998 6.67812
821 2 2.2208 -0.190169 37.2005 2.47627
776 1 -1.1104 7.17448 21.7059 3.74612
773 1 -1.1104 6.99073 24.5767 3.97623
774 1 -1.1104 6.82809 21.6753 1.0197
772 1 -1.1104 6.96177 24.3901 0.927515
778 2 2.2208 11.3845 23.0591 5.27221
780 1 -1.1104 12.6315 24.4937 1.13532
781 1 -1.1104 12.3923 24.6284 3.76903
782 1 -1.1104 12.6756 21.6232 0.773815
784 2 2.2208 11.0935 25.9813 2.56191
785 1 -1.1104 12.5317 21.8098 3.5704
787 1 -1.1104 9.73913 24.7527 0.887913
788 2 2.2208 8.41191 23.081 2.45016
790 1 -1.1104 9.56793 24.7699 3.67352
791 2 2.2208 8.09813 25.9973 5.21823
792 1 -1.1104 9.84913 21.6178 1.13766
794 1 -1.1104 9.93012 21.5515 4.02546
783 1 -1.1104 12.632 27.5159 1.17335
795 1 -1.1104 9.7855 27.371 3.83234
786 1 -1.1104 12.5201 27.3543 3.86685
793 1 -1.1104 9.79665 27.3201 1.00377
775 1 -1.1104 6.74854 27.0795 1.0603
1105 2 2.2208 2.2401 45.5176 13.5329
1677 1 -1.1104 1.05254 46.9693 11.9625
752 2 2.2208 5.48636 28.6032 5.09057
762 2 2.2208 2.71475 28.7369 2.33487
800 1 -1.1104 1.19016 30.0955 1.0108
803 1 -1.1104 0.986721 29.8442 3.75017
806 1 -1.1104 1.05938 32.8865 1.05408
807 2 2.2208 5.40947 31.5302 2.60216
809 1 -1.1104 0.939036 32.8876 3.9836
811 1 -1.1104 4.01521 30.185 0.886272
814 1 -1.1104 3.96273 30.1807 3.74024
816 2 2.2208 2.45844 31.4097 5.1698
818 1 -1.1104 3.80747 33.0464 1.1006
819 1 -1.1104 3.92025 32.8491 3.73174
822 2 2.2208 -0.305021 31.4025 2.32794
823 1 -1.1104 6.91357 30.0044 1.04365
769 2 2.2208 -0.169092 28.6241 5.35281
957 1 -1.1104 3.90124 32.846 6.58365
1106 2 2.2208 8.29496 45.1928 13.6604
810 1 -1.1104 6.78862 32.9785 3.90596
825 1 -1.1104 6.67822 32.623 1.23021
824 1 -1.1104 6.879 30.0648 3.96232
779 2 2.2208 11.1607 28.6161 5.15859
789 2 2.2208 8.34934 28.7712 2.45437
827 1 -1.1104 12.457 30.4181 1.05753
829 1 -1.1104 12.6021 30.058 3.98178
831 1 -1.1104 12.3766 33.0251 0.900949
832 2 2.2208 11.1087 31.6122 2.47211
834 1 -1.1104 12.471 32.8043 3.84526
835 1 -1.1104 9.86566 29.9475 1.01246
838 1 -1.1104 9.62583 30.1695 3.93107
840 2 2.2208 8.18 31.3224 5.39041
842 1 -1.1104 9.55423 32.7309 1.09693
843 1 -1.1104 9.55353 32.735 3.8708
1101 2 2.2208 5.35191 42.6208 13.6127
1073 2 2.2208 -0.287736 28.5731 11.0863
1124 2 2.2208 11.1213 28.7615 -0.33757
799 2 2.2208 5.35977 34.182 5.36338
801 1 -1.1104 1.17446 35.7426 1.19123
804 1 -1.1104 1.02909 35.901 4.1006
808 2 2.2208 5.2637 37.1541 2.59105
812 1 -1.1104 3.9736 35.8458 0.947264
813 2 2.2208 2.50634 34.4105 2.4085
815 1 -1.1104 3.9933 35.3647 3.80329
817 2 2.2208 2.33306 37.1306 5.38749
845 2 2.2208 5.31727 40.1777 5.25338
851 1 -1.1104 1.16581 38.4887 1.03045
856 1 -1.1104 1.30379 38.5767 3.82717
861 2 2.2208 2.54833 40.0021 2.38791
865 1 -1.1104 4.04751 38.5725 1.03191
867 1 -1.1104 3.9082 38.3279 3.96477
1114 2 2.2208 5.5342 23.1453 -0.448305
1023 1 -1.1104 1.16036 38.5616 6.68249
1054 2 2.2208 10.8733 43.0337 8.0734
1079 2 2.2208 -0.351641 31.6056 7.98523
956 1 -1.1104 3.51338 35.6391 6.61816
1029 1 -1.1104 3.7851 38.4203 6.88007
1067 2 2.2208 13.6225 36.9646 5.32541
1127 2 2.2208 5.47071 34.4182 -0.147431