ITEM: TIMESTEP
100000
ITEM: NUMBER OF ATOMS
17700
ITEM: BOX BOUNDS pp pp pp
-4.4732294087940122e-01 2.7787322940878941e+01
-5.3040489255099112e+00 3.3338404892550750e+02
-4.4683481345752490e-01 2.7786834813457649e+01
ITEM: ATOMS id type q x y z
1 2 2.2208 5.1792 0.30948 5.33759
2 1 -1.1104 1.08369 -3.80675 1.21825
6 1 -1.1104 0.985472 -4.02285 4.1858
10 1 -1.1104 1.0826 -0.959584 1.20752
12 2 2.2208 5.17999 -2.34403 2.56152
14 1 -1.1104 1.01744 -1.2797 4.05427
16 1 -1.1104 3.90403 -3.82192 1.08479
18 2 2.2208 2.28864 0.212226 2.65614
19 1 -1.1104 3.64255 -3.79582 3.96281
21 2 2.2208 2.50009 -2.51193 5.57784
23 1 -1.1104 3.87505 -0.976532 1.08
24 1 -1.1104 3.71848 -0.953086 4.08465
8 1 -1.1104 6.59117 -3.60523 3.86373
4 1 -1.1104 6.71249 -4.14361 0.988177
11 1 -1.1104 6.653 -0.978744 1.26245
171 1 -1.1104 6.59116 -1.03362 6.50884
15 1 -1.1104 6.62477 -0.929733 3.82724
231 2 2.2208 7.90329 -5.114 8.27488
174 1 -1.1104 3.91816 -1.07551 6.78403
326 1 -1.1104 12.3483 16.0204 12.3281
324 2 2.2208 10.8298 19.9672 8.05286
325 2 2.2208 10.8587 14.2659 8.11762
31 2 2.2208 10.9992 0.628436 5.53931
32 1 -1.1104 12.2924 -4.12518 1.20369
34 1 -1.1104 12.2658 -3.74848 4.14933
36 1 -1.1104 12.3178 -1.2212 1.03696
37 2 2.2208 10.8459 -2.53197 2.73668
39 1 -1.1104 12.3963 -0.817408 4.08844
40 1 -1.1104 9.61126 -3.71932 1.14071
42 2 2.2208 8.20743 0.320226 2.59207
43 1 -1.1104 9.36634 -3.9439 3.97788
45 2 2.2208 8.18595 -2.39509 5.17535
47 1 -1.1104 9.51925 -0.8873 1.09826
48 1 -1.1104 9.54008 -1.03865 3.92451
210 1 -1.1104 9.44853 -1.10013 6.75436
207 1 -1.1104 12.2203 -0.866223 6.88893
405 2 2.2208 2.54112 19.9871 -0.180733
208 1 -1.1104 9.46009 -3.74027 6.96113
135 2 2.2208 -0.320511 14.3754 2.54975
391 2 2.2208 13.6919 -2.51555 -0.196129
3 1 -1.1104 0.956404 1.86154 1.23113
7 1 -1.1104 0.829873 1.5714 4.0263
13 2 2.2208 5.44852 3.20635 2.73177
17 1 -1.1104 4.00492 1.92062 1.1043
20 1 -1.1104 3.79444 1.66968 3.98479
22 2 2.2208 2.42101 3.03869 5.39835
54 2 2.2208 4.92113 6.07273 5.56821
60 1 -1.1104 1.03783 4.68256 1.15654
67 1 -1.1104 0.939741 4.35603 3.9961
72 2 2.2208 2.32278 5.9794 2.67622
74 1 -1.1104 3.68553 7.27205 4.05947
76 1 -1.1104 3.94754 4.55572 1.50569
79 1 -1.1104 3.53124 4.45472 4.05477
71 1 -1.1104 3.32433 7.20723 1.14939
56 1 -1.1104 0.719738 7.45803 1.21406
58 1 -1.1104 0.833782 7.39053 4.11444
57 1 -1.1104 6.47682 7.42085 1.39203
9 1 -1.1104 6.69207 1.78545 4.20006
5 1 -1.1104 6.88741 1.68746 1.33143
69 1 -1.1104 6.52594 4.66906 4.13529
238 1 -1.1104 3.70908 7.49593 6.91305
59 1 -1.1104 6.53216 7.42143 4.14407
63 1 -1.1104 6.68217 4.6078 1.13235
167 1 -1.1104 0.929992 1.55472 6.87876
237 1 -1.1104 6.58742 4.62155 6.97913
173 1 -1.1104 3.89964 1.6804 6.87246
169 1 -1.1104 6.79592 1.78289 6.75001
236 1 -1.1104 1.15258 4.53464 6.91485
401 2 2.2208 -0.504553 17.164 -0.226125
33 1 -1.1104 12.2536 1.72106 1.38452
35 1 -1.1104 12.174 2.00891 4.19228
38 2 2.2208 10.8057 3.24106 2.73678
41 1 -1.1104 9.44503 1.81887 1.09313
44 1 -1.1104 9.34167 1.83111 4.01436
46 2 2.2208 8.02461 3.27895 5.50483
84 2 2.2208 10.9201 6.11255 5.88232
88 1 -1.1104 12.2165 4.60469 1.24617
92 1 -1.1104 12.3213 4.80844 4.1241
95 2 2.2208 7.87193 6.01019 2.76998
99 1 -1.1104 9.17872 4.55597 1.44295
102 1 -1.1104 9.40328 4.74815 4.39564
97 1 -1.1104 9.49348 7.41115 4.01724
94 1 -1.1104 9.32417 7.3312 1.16537
87 1 -1.1104 12.4162 7.39951 3.99882
86 1 -1.1104 12.3338 7.53811 1.13939
105 2 2.2208 13.4518 6.03865 2.56355
267 1 -1.1104 9.47026 7.73438 6.77181
269 1 -1.1104 9.4251 4.75962 7.03749
206 1 -1.1104 12.4184 1.91151 6.78771
55 2 2.2208 5.01536 11.4715 5.24033
61 1 -1.1104 0.901123 10.2423 1.12294
66 2 2.2208 5.04572 8.76772 2.5828
68 1 -1.1104 0.863621 10.1676 3.82241
73 2 2.2208 2.36661 11.7323 2.30403
75 2 2.2208 2.41197 8.73458 5.34689
77 1 -1.1104 3.80376 10.2097 1.01223
80 1 -1.1104 3.79877 10.3113 3.75568
107 1 -1.1104 0.897237 13.1568 1.10554
113 1 -1.1104 1.12172 13.0093 3.76044
123 1 -1.1104 3.68029 13.0836 1.02299
128 1 -1.1104 3.93503 13.0916 3.9461
124 1 -1.1104 3.82638 12.7842 6.70495
70 1 -1.1104 6.46387 10.0321 4.07161
110 1 -1.1104 6.68114 13.039 1.04313
65 1 -1.1104 6.8137 10.0187 6.7846
64 1 -1.1104 6.5641 10.3788 1.35214
130 2 2.2208 2.25618 14.2663 5.2753
62 1 -1.1104 1.14787 10.0999 6.90021
115 1 -1.1104 6.61592 12.7668 3.76271
85 2 2.2208 10.8509 11.6276 5.35295
89 1 -1.1104 12.0863 10.2214 1.21802
91 2 2.2208 10.9009 8.71526 2.73299
93 1 -1.1104 12.2154 10.1986 4.02804
96 2 2.2208 8.11097 11.5844 2.491
98 2 2.2208 8.05474 8.78572 5.44943
100 1 -1.1104 9.42637 10.0447 1.25838
103 1 -1.1104 9.30283 10.2195 4.09253
142 1 -1.1104 12.4898 13.0799 1.22484
146 1 -1.1104 12.2541 12.8035 3.77263
153 1 -1.1104 9.60549 12.7149 1.09662
158 1 -1.1104 9.34151 12.9442 4.11327
343 2 2.2208 -0.26692 8.61999 8.25784
395 2 2.2208 5.10369 11.4989 -0.177981
119 2 2.2208 5.20467 14.2869 2.53318
106 2 2.2208 5.32771 17.2239 5.28463
109 1 -1.1104 0.86237 18.5909 1.30091
114 1 -1.1104 0.864761 18.6375 3.98605
116 1 -1.1104 0.87768 15.8037 0.979493
120 2 2.2208 5.20901 19.907 2.44113
121 1 -1.1104 1.09914 15.8483 4.09902
125 1 -1.1104 3.79629 18.4857 1.16572
127 2 2.2208 2.42531 17.0911 2.68511
129 1 -1.1104 3.68935 18.5597 3.89761
131 2 2.2208 2.33083 19.9815 5.297
132 1 -1.1104 3.80864 15.8141 1.24235
134 1 -1.1104 3.8135 15.6552 4.07418
126 1 -1.1104 3.82091 18.6494 6.8014
133 1 -1.1104 3.91298 15.7048 6.98816
140 1 -1.1104 6.65135 15.7672 1.25993
122 1 -1.1104 6.54759 15.7852 3.92828
138 1 -1.1104 6.49707 18.6089 0.870916
112 1 -1.1104 6.73938 18.5689 6.71446
139 1 -1.1104 6.60439 18.7226 3.92847
117 1 -1.1104 0.909427 15.7098 6.94531
388 2 2.2208 8.12849 -2.25704 -0.320604
150 2 2.2208 10.7451 14.1817 2.58095
160 2 2.2208 7.96329 14.4692 5.32001
141 2 2.2208 10.7873 17.1153 5.12662
144 1 -1.1104 12.1929 18.7497 0.948842
147 1 -1.1104 12.1785 18.6044 3.86722
148 1 -1.1104 12.016 15.9485 1.06996
151 2 2.2208 10.7368 19.9575 2.57048
152 1 -1.1104 12.418 15.8536 3.90762
155 1 -1.1104 9.32439 18.6807 1.06373
157 2 2.2208 8.0305 17.1747 2.39233
159 1 -1.1104 9.29106 18.5631 3.93008
161 2 2.2208 7.87557 20.0607 5.36275
162 1 -1.1104 9.41629 15.9118 1.0183
164 1 -1.1104 9.28997 15.5949 3.77609
156 1 -1.1104 9.2778 18.677 6.79415
149 1 -1.1104 12.1936 15.8626 6.50093
145 1 -1.1104 12.1646 18.4772 6.65413
312 2 2.2208 -0.390486 17.4056 11.0512
382 2 2.2208 2.45289 -2.42367 -0.195634
399 2 2.2208 8.12479 8.85578 -0.165005
398 2 2.2208 10.7698 6.02432 -0.152422
316 2 2.2208 7.81438 20.0351 11.0023
232 2 2.2208 10.835 -5.22385 10.9773
172 1 -1.1104 3.9448 -3.7805 6.81157
392 2 2.2208 13.5758 3.14106 -0.168742
170 1 -1.1104 1.02942 -1.02322 6.87956
166 1 -1.1104 1.07053 -3.98369 6.88167
168 1 -1.1104 6.86498 -3.84061 6.50056
175 2 2.2208 5.25538 0.453937 11.0278
176 1 -1.1104 1.10757 -3.88857 12.4299
180 1 -1.1104 0.885459 -3.78492 9.59759
184 1 -1.1104 0.992353 -0.868578 12.3599
186 2 2.2208 5.26297 -2.32211 8.24029
188 1 -1.1104 1.18495 -0.977592 9.53628
190 1 -1.1104 3.83532 -3.73592 12.4129
192 2 2.2208 2.51081 0.287158 8.15349
193 1 -1.1104 3.76976 -3.86093 9.51947
195 2 2.2208 2.44977 -2.44351 10.9708
197 1 -1.1104 3.90818 -0.986948 12.2743
198 1 -1.1104 3.98877 -0.976191 9.52277
178 1 -1.1104 6.47223 -3.93542 12.3938
189 1 -1.1104 6.82202 -1.07657 9.54786
182 1 -1.1104 6.62855 -3.75183 9.58904
317 2 2.2208 7.96597 14.3356 10.7941
327 1 -1.1104 12.2265 18.5688 9.45485
205 1 -1.1104 12.1514 -3.7499 6.94009
233 2 2.2208 13.6654 -5.16888 8.15533
185 1 -1.1104 6.73583 -1.12762 12.3934
394 2 2.2208 2.21201 8.70969 -0.210166
211 2 2.2208 10.8923 0.175449 11.1654
212 1 -1.1104 12.4015 -3.91482 12.512
214 1 -1.1104 12.281 -3.72183 9.81758
216 1 -1.1104 12.0849 -1.0839 12.6176
217 2 2.2208 10.8949 -2.36696 8.328
219 1 -1.1104 12.4409 -0.896225 9.8669
220 1 -1.1104 9.48596 -3.75619 12.385
222 2 2.2208 7.98571 0.190039 8.17442
223 1 -1.1104 9.44509 -3.93553 9.50116
225 2 2.2208 8.03374 -2.38761 10.9905
227 1 -1.1104 9.35921 -1.00876 12.7175
228 1 -1.1104 9.3326 -1.29085 9.51304
83 2 2.2208 -0.418175 11.5222 5.56271
202 2 2.2208 2.46387 -5.31662 8.27598
239 1 -1.1104 3.87155 4.50563 6.88277
234 1 -1.1104 1.0817 7.28275 6.60474
235 1 -1.1104 6.47415 7.49272 6.92807
177 1 -1.1104 1.2009 1.75989 12.6686
181 1 -1.1104 0.751106 1.82509 9.77911
187 2 2.2208 5.3425 3.1767 8.17101
191 1 -1.1104 3.98121 1.83683 12.5459
194 1 -1.1104 3.49918 1.84701 9.73068
196 2 2.2208 2.52798 3.13296 11.1615
240 2 2.2208 5.17137 5.98366 11.2401
244 1 -1.1104 1.16185 7.3194 9.66683
246 1 -1.1104 0.915693 4.52841 12.3473
251 1 -1.1104 1.14527 4.65402 9.77275
256 2 2.2208 2.38971 5.91305 8.36592
258 1 -1.1104 3.99436 7.31112 9.48761
260 1 -1.1104 3.70333 4.57697 12.6262
262 1 -1.1104 3.85582 4.49103 9.8351
255 1 -1.1104 3.91274 7.44953 12.4007
242 1 -1.1104 1.12081 7.07401 12.4874
179 1 -1.1104 6.77123 1.81781 12.6673
183 1 -1.1104 6.42602 1.98929 9.66595
245 1 -1.1104 6.75644 7.46875 9.93869
248 1 -1.1104 6.63392 4.69652 12.5423
253 1 -1.1104 6.54687 4.64004 9.65137
243 1 -1.1104 6.63205 7.45998 12.546
342 2 2.2208 -0.377725 11.7634 11.1338
204 2 2.2208 -0.448617 -5.05281 11.1212
266 1 -1.1104 12.278 4.46765 6.93954
265 1 -1.1104 12.3798 7.40815 7.19435
209 1 -1.1104 9.56982 1.79166 7.03998
213 1 -1.1104 12.2147 1.67467 12.482
215 1 -1.1104 12.2704 1.76069 9.51716
218 2 2.2208 10.9479 3.15369 8.37841
221 1 -1.1104 9.52132 1.76048 12.6528
224 1 -1.1104 9.33754 1.53535 9.81808
226 2 2.2208 7.97655 3.15008 11.2207
268 1 -1.1104 9.38713 4.39042 9.71147
271 1 -1.1104 9.39902 4.6534 12.6096
275 2 2.2208 7.85878 6.00965 8.39225
276 2 2.2208 10.8677 5.94569 11.0189
280 1 -1.1104 12.1334 4.45738 12.4391
283 1 -1.1104 12.2136 4.60035 9.73809
285 1 -1.1104 9.58058 7.20527 12.2842
273 1 -1.1104 9.5059 7.29462 9.36752
279 1 -1.1104 12.4535 7.23574 9.74998
278 1 -1.1104 12.5086 7.37402 12.6277
381 2 2.2208 5.38799 0.307999 -0.327245
320 2 2.2208 8.11657 17.1516 8.07482
403 2 2.2208 2.23656 14.5814 -0.401172
111 1 -1.1104 6.68579 12.9605 6.69842
314 1 -1.1104 9.45283 15.7687 9.33079
78 1 -1.1104 3.86789 10.1353 6.69063
108 1 -1.1104 0.958403 13.065 6.68118
287 1 -1.1104 3.7583 13.1472 12.5821
305 1 -1.1104 3.90515 12.8816 9.57082
299 1 -1.1104 0.9289 12.999 12.4761
294 1 -1.1104 0.98986 12.9836 9.77602
241 2 2.2208 5.28094 11.5 10.9952
247 1 -1.1104 1.18734 10.2549 12.2882
250 2 2.2208 5.29501 8.85379 8.0964
252 1 -1.1104 1.07554 10.1596 9.6529
257 2 2.2208 2.52415 11.6544 8.28745
259 2 2.2208 2.51895 8.81481 11.005
261 1 -1.1104 3.99285 10.459 12.4265
263 1 -1.1104 3.9335 10.1481 9.62538
254 1 -1.1104 6.74501 10.1598 9.34412
249 1 -1.1104 6.72832 10.2414 12.3793
297 1 -1.1104 6.47632 13.0199 12.1224
290 1 -1.1104 6.72917 12.843 9.35235
143 1 -1.1104 12.1853 13.0074 6.56758
101 1 -1.1104 9.62482 10.3877 6.96036
377 2 2.2208 7.99367 14.4499 -0.279063
52 2 2.2208 10.9309 -5.11045 5.56467
154 1 -1.1104 9.39578 13.0702 6.73472
90 1 -1.1104 12.3096 10.1106 6.72413
330 1 -1.1104 12.12 13.2999 12.41
328 1 -1.1104 12.3466 12.8405 9.64338
322 1 -1.1104 9.10275 12.8051 12.2944
319 1 -1.1104 9.46222 12.9335 9.73854
264 1 -1.1104 9.56718 10.2338 9.75872
270 1 -1.1104 9.36985 9.98645 12.7529
272 2 2.2208 8.14612 8.85523 11.0323
274 2 2.2208 8.10866 11.5297 8.1013
277 2 2.2208 10.7815 11.5212 11.1677
281 1 -1.1104 11.9721 10.2532 12.5438
282 2 2.2208 10.9089 8.95751 8.28138
284 1 -1.1104 12.3015 10.1342 9.6593
335 2 2.2208 13.6527 8.88131 5.4354
315 1 -1.1104 9.51544 15.9049 12.279
302 1 -1.1104 1.0119 18.4845 6.73964
118 1 -1.1104 6.64684 15.7638 6.63437
383 2 2.2208 2.48096 3.09669 -0.214601
306 1 -1.1104 6.72128 15.9464 12.3579
289 1 -1.1104 6.55023 15.7225 9.47555
295 2 2.2208 5.26966 14.2185 7.97438
310 2 2.2208 2.43481 14.3558 11.051
309 2 2.2208 2.38013 20.028 10.9153
308 1 -1.1104 3.78189 15.7425 12.1916
307 1 -1.1104 0.998901 15.9124 12.6496
304 1 -1.1104 3.69412 15.7541 9.55696
303 2 2.2208 2.58313 17.1847 8.00133
301 1 -1.1104 3.77334 18.5991 9.35032
300 2 2.2208 5.20881 17.1673 10.8526
298 1 -1.1104 0.883112 18.6195 12.4028
293 2 2.2208 5.24411 20.0703 8.06908
292 1 -1.1104 0.986736 16.0455 9.69732
291 1 -1.1104 0.840179 18.5815 9.58943
286 1 -1.1104 3.7071 18.5916 12.4199
296 1 -1.1104 6.43014 18.5846 12.3094
288 1 -1.1104 6.61134 18.4424 9.59152
163 1 -1.1104 9.41724 15.854 6.47104
323 1 -1.1104 12.2301 15.783 9.52875
389 2 2.2208 8.02711 3.13652 -0.271027
321 1 -1.1104 9.34797 18.7238 12.2721
318 1 -1.1104 9.2961 18.5527 9.4929
329 1 -1.1104 12.0812 18.8336 12.2602
331 2 2.2208 10.8167 17.2402 10.9625
203 2 2.2208 5.1238 -5.17661 10.9464
378 2 2.2208 10.8964 17.226 -0.304586
390 2 2.2208 10.7067 -5.11551 -0.29635
400 2 2.2208 11.0212 11.4145 -0.300325
29 2 2.2208 5.15683 -5.13037 5.36257
345 2 2.2208 13.4913 20.0222 10.8244
81 2 2.2208 -0.461458 5.79401 5.35631
311 2 2.2208 -0.341339 20.0221 8.09599
393 2 2.2208 5.08166 6.04875 -0.119992
387 2 2.2208 10.8222 0.416667 -0.165775
344 2 2.2208 -0.419166 5.81465 11.019
371 2 2.2208 5.27273 14.3276 13.6784
26 2 2.2208 -0.319517 0.282054 5.45226
332 2 2.2208 13.6485 17.1936 7.98658
27 2 2.2208 -0.405411 3.2596 2.62299
336 2 2.2208 13.5293 19.8812 5.14669
199 2 2.2208 -0.303523 3.06203 8.1838
200 2 2.2208 -0.290605 -2.29063 8.09741
386 2 2.2208 -0.43296 0.196648 -0.263597
384 2 2.2208 -0.338961 -5.19967 -0.106515
402 2 2.2208 13.6017 8.82581 -0.284549
338 2 2.2208 13.4823 3.12443 11.0505
375 2 2.2208 13.5607 20.102 -0.371049
229 2 2.2208 13.6725 0.476604 8.31372
374 2 2.2208 13.6833 14.4686 -0.119515
165 2 2.2208 13.5242 17.2229 2.41277
404 2 2.2208 5.05573 17.2367 -0.345371
376 2 2.2208 8.10031 17.4245 13.6288
358 2 2.2208 -0.234539 8.67861 13.6339
406 2 2.2208 5.13478 0.441601 16.7847
407 1 -1.1104 1.21109 -3.79798 18.1194
411 1 -1.1104 0.922992 -3.73354 15.3109
419 1 -1.1104 0.893536 -1.0444 18.0226
421 2 2.2208 5.12338 -2.34157 19.6555
423 1 -1.1104 1.04741 -0.927784 15.0692
427 1 -1.1104 4.00432 -3.56813 17.9176
429 2 2.2208 2.39884 0.314105 19.5825
430 1 -1.1104 3.74689 -3.83773 15.1453
434 2 2.2208 2.48548 -2.28435 16.7331
436 1 -1.1104 3.6633 -1.02607 18.0028
437 1 -1.1104 4.11744 -0.963612 15.1544
425 1 -1.1104 6.813 -0.95451 15.238
409 1 -1.1104 6.6425 -3.5838 18.2242
415 1 -1.1104 6.57731 -3.96978 15.1428
424 1 -1.1104 0.942031 -1.00883 20.7481
420 1 -1.1104 6.56378 -0.926583 18.0311
478 2 2.2208 13.5679 20.2909 16.5519
438 1 -1.1104 3.83358 -1.05585 20.8224
416 1 -1.1104 6.38266 -3.91435 20.7463
449 2 2.2208 10.9149 0.516794 16.7511
450 1 -1.1104 12.2351 -3.99693 18.1919
452 1 -1.1104 12.1729 -3.75731 15.2752
456 1 -1.1104 12.2011 -1.02363 18.28
457 2 2.2208 10.8972 -2.5288 19.5686
459 1 -1.1104 12.3069 -0.76297 15.467
461 1 -1.1104 9.4674 -3.67982 18.0919
463 2 2.2208 7.92198 0.283504 19.517
464 1 -1.1104 9.42987 -3.78769 15.287
468 2 2.2208 8.19929 -2.38422 16.7343
470 1 -1.1104 9.47748 -0.918976 18.0159
471 1 -1.1104 9.75898 -1.23739 15.4057
726 2 2.2208 13.7386 11.7987 25.2053
349 2 2.2208 2.56475 0.301584 13.7526
477 2 2.2208 13.6523 -2.32665 16.591
373 2 2.2208 10.8029 14.5249 13.8517
641 2 2.2208 11.0166 19.9584 25.074
408 1 -1.1104 1.13233 1.56203 18.1115
413 1 -1.1104 1.12647 1.75095 15.3282
422 2 2.2208 5.11772 3.29793 19.7016
428 1 -1.1104 3.87581 1.64552 18.3243
432 1 -1.1104 3.77934 1.8637 15.4165
435 2 2.2208 2.45849 3.07574 16.8348
482 2 2.2208 5.51266 6.07903 16.5692
490 1 -1.1104 1.2323 4.699 17.9997
495 1 -1.1104 1.16811 4.52386 15.3159
503 1 -1.1104 4.01581 7.40171 18.0597
504 2 2.2208 2.53384 5.95152 19.4804
509 1 -1.1104 4.04139 4.51369 17.9833
511 1 -1.1104 3.98214 4.79305 15.1199
484 1 -1.1104 0.991205 7.62361 18.1484
486 1 -1.1104 1.27285 7.41956 15.1758
506 1 -1.1104 3.97134 7.49838 15.2148
492 1 -1.1104 6.64431 4.91072 18.1192
485 1 -1.1104 6.68593 7.57461 18.0506
410 1 -1.1104 6.48222 1.85014 18.2565
414 1 -1.1104 0.859968 1.71364 20.9043
487 1 -1.1104 1.02316 7.3844 20.9973
512 1 -1.1104 3.80022 4.62322 21.1252
499 1 -1.1104 6.72452 4.64586 15.3079
418 1 -1.1104 6.62541 1.75294 20.9802
489 1 -1.1104 6.64862 7.29164 20.9813
417 1 -1.1104 6.50006 1.58562 15.4779
500 1 -1.1104 6.5413 4.52988 20.9674
488 1 -1.1104 6.85908 7.43002 15.0603
496 1 -1.1104 0.980969 4.64075 20.833
433 1 -1.1104 3.8101 1.93311 21.0702
357 2 2.2208 10.7224 3.33292 13.9696
669 2 2.2208 8.10853 -5.25444 25.1591
451 1 -1.1104 12.4288 1.83796 18.1781
454 1 -1.1104 12.2095 2.01034 15.4815
458 2 2.2208 10.9292 3.08926 19.6421
462 1 -1.1104 9.34144 1.74789 18.1612
466 1 -1.1104 9.37554 1.8964 15.4133
469 2 2.2208 7.83265 3.1881 16.9142
518 2 2.2208 10.9415 6.09124 16.8161
521 1 -1.1104 12.3433 7.4391 15.3315
523 1 -1.1104 12.2229 4.71842 18.3788
526 1 -1.1104 12.2619 4.75726 15.4547
530 1 -1.1104 9.53841 7.41127 18.1553
531 2 2.2208 8.23235 5.98779 19.5248
536 1 -1.1104 9.45673 4.30674 18.3511
538 1 -1.1104 9.51548 4.61774 15.4608
533 1 -1.1104 9.56931 7.44953 15.3104
522 1 -1.1104 12.292 7.3007 20.8191
539 1 -1.1104 9.33534 4.52813 20.9877
520 1 -1.1104 12.4859 7.49827 18.0542
455 1 -1.1104 12.1586 1.49629 21.0034
355 2 2.2208 8.18853 0.408125 14.0223
534 1 -1.1104 9.50183 7.30302 21.0293
639 2 2.2208 5.24385 -5.22469 22.1694
483 2 2.2208 5.39275 11.5936 16.6083
491 1 -1.1104 1.23567 10.1124 18.0169
494 2 2.2208 5.36016 8.71829 19.5097
497 1 -1.1104 0.935807 10.278 15.3563
505 2 2.2208 2.49439 11.6183 19.3135
508 2 2.2208 2.59561 8.87719 16.657
510 1 -1.1104 3.96109 10.3816 18.0724
513 1 -1.1104 3.91036 10.226 15.3171
546 1 -1.1104 1.10487 13.0856 18.0964
550 1 -1.1104 1.18765 12.8553 15.3466
566 1 -1.1104 3.91656 13.0116 18.1489
569 1 -1.1104 4.05175 13.0102 15.454
501 1 -1.1104 6.67299 10.249 15.0746
548 1 -1.1104 6.75803 13.1961 18.004
551 1 -1.1104 1.25654 13.0397 21.0527
514 1 -1.1104 3.83404 9.85315 20.8306
671 2 2.2208 13.6481 -2.45292 22.4349
493 1 -1.1104 6.77919 10.1551 17.9923
502 1 -1.1104 6.77707 9.98425 20.8616
570 1 -1.1104 3.87523 12.7927 20.9962
554 1 -1.1104 6.83535 13.0232 15.4557
519 2 2.2208 10.9749 11.5699 16.6421
524 1 -1.1104 12.4833 10.3181 18.232
525 2 2.2208 10.8057 8.59037 19.8154
528 1 -1.1104 12.2156 10.261 15.303
532 2 2.2208 8.07842 11.6863 19.4605
535 2 2.2208 8.16199 8.77661 16.6376
537 1 -1.1104 9.59523 10.1621 18.1955
540 1 -1.1104 9.42045 10.2417 15.2679
582 1 -1.1104 12.1841 13.4978 17.8752
584 1 -1.1104 12.499 13.0082 15.2808
593 1 -1.1104 9.21538 12.8959 18.0194
596 1 -1.1104 9.62765 13.3453 15.2643
379 2 2.2208 8.08598 20.0498 27.7672
640 2 2.2208 2.67573 -5.26018 25.2447
480 2 2.2208 13.6222 14.4669 16.6748
597 1 -1.1104 9.43346 12.9637 20.9087
529 1 -1.1104 12.3392 10.138 21.1418
541 1 -1.1104 9.50138 10.0029 20.9791
367 2 2.2208 -0.265341 3.25046 13.8903
573 2 2.2208 2.48262 14.4408 16.712
560 2 2.2208 5.25051 14.2539 19.3689
545 2 2.2208 5.16353 17.1948 16.5737
547 1 -1.1104 0.930595 18.6347 18.0565
552 1 -1.1104 0.979587 18.7308 15.0926
558 1 -1.1104 0.891379 15.832 18.1646
561 2 2.2208 5.08013 20.0262 19.5085
562 1 -1.1104 1.03283 15.7281 15.2976
567 1 -1.1104 3.65498 18.829 17.952
568 2 2.2208 2.27647 17.2132 19.4798
571 1 -1.1104 3.80451 18.5345 15.2045
574 2 2.2208 2.23564 19.8467 16.6507
575 1 -1.1104 4.074 15.8543 17.9775
576 1 -1.1104 3.62543 15.6637 15.1697
553 1 -1.1104 1.02419 18.6294 20.9523
549 1 -1.1104 6.68329 18.5984 18.0965
564 1 -1.1104 6.38874 15.9261 15.1255
559 1 -1.1104 6.78806 15.9112 17.9672
556 1 -1.1104 6.6022 18.6487 15.2164
577 1 -1.1104 3.87135 15.8496 20.8614
563 1 -1.1104 0.824062 15.784 21.0029
565 1 -1.1104 6.54548 15.7929 20.8721
356 2 2.2208 10.8972 -2.5159 13.9135
600 2 2.2208 8.10742 14.5572 16.5669
592 1 -1.1104 12.2505 16.0068 20.8401
589 2 2.2208 11.0546 14.6282 19.3753
581 2 2.2208 10.9641 17.3343 16.577
583 1 -1.1104 12.1466 18.7938 17.9054
586 1 -1.1104 12.1245 18.7728 15.0225
588 1 -1.1104 12.4802 16.0809 18.0543
590 2 2.2208 10.8747 20.1089 19.4764
591 1 -1.1104 12.0113 15.8336 15.1981
594 1 -1.1104 9.56201 18.7758 17.9195
595 2 2.2208 8.04824 17.1992 19.4178
598 1 -1.1104 9.37771 18.8596 15.0002
601 2 2.2208 7.88469 20.0238 16.5325
602 1 -1.1104 9.80437 15.8621 17.9042
603 1 -1.1104 9.16151 15.928 15.1581
475 2 2.2208 7.97595 -5.10184 19.3541
363 2 2.2208 8.27826 6.11896 13.8636
599 1 -1.1104 9.44216 18.6631 20.789
605 2 2.2208 13.7403 17.261 25.0138
606 2 2.2208 13.5656 20.2508 22.3176
431 1 -1.1104 3.69364 -3.88453 20.7005
412 1 -1.1104 1.10656 -3.90037 20.8414
426 1 -1.1104 6.51442 -1.11778 20.8759
609 2 2.2208 5.05308 0.441536 22.4864
610 1 -1.1104 0.906959 -3.82475 23.8316
614 1 -1.1104 1.12807 -3.88276 26.5878
618 1 -1.1104 0.997758 -0.933428 23.6024
620 2 2.2208 5.16121 -2.62925 25.1206
622 1 -1.1104 1.06112 -1.15216 26.5242
624 1 -1.1104 3.74671 -3.90426 23.668
626 2 2.2208 2.26624 0.50556 25.2492
627 1 -1.1104 4.11316 -3.90039 26.563
629 2 2.2208 2.26337 -2.29022 22.1206
631 1 -1.1104 3.57475 -1.18164 23.6948
632 1 -1.1104 3.81193 -0.772684 26.5599
616 1 -1.1104 6.72896 -3.92946 26.464
623 1 -1.1104 6.51158 -1.31607 26.6478
612 1 -1.1104 6.53119 -3.99738 23.6052
619 1 -1.1104 6.3592 -1.03803 23.8217
668 2 2.2208 10.8151 -5.20493 22.3028
347 2 2.2208 2.42539 -5.19465 13.8484
460 1 -1.1104 12.3282 -1.07399 20.9452
453 1 -1.1104 12.2647 -3.91068 20.9313
472 1 -1.1104 9.4903 -1.15629 20.8076
465 1 -1.1104 9.41186 -3.83984 21.1867
372 2 2.2208 10.7819 20.0965 13.7011
699 2 2.2208 8.15913 14.5175 22.2494
645 2 2.2208 10.6171 0.437703 22.2575
646 1 -1.1104 12.2916 -3.75519 23.6281
648 1 -1.1104 12.0432 -4.01103 26.6092
650 1 -1.1104 11.8569 -1.14873 23.656
651 2 2.2208 10.7596 -2.46578 25.1236
653 1 -1.1104 12.3929 -1.0747 26.5089
654 1 -1.1104 9.50909 -3.81749 23.7866
656 2 2.2208 7.81873 0.366551 25.0701
657 1 -1.1104 9.43308 -3.6665 26.6608
659 2 2.2208 7.89755 -2.32906 22.3374
661 1 -1.1104 9.02701 -0.930785 23.6835
662 1 -1.1104 9.40915 -0.910708 26.4817
353 2 2.2208 7.9778 -5.28011 13.9204
369 2 2.2208 5.03954 20.2117 13.7112
701 1 -1.1104 9.17774 15.9049 23.7594
507 1 -1.1104 3.88667 7.12396 20.9921
663 1 -1.1104 12.188 16.072 26.5105
611 1 -1.1104 0.697526 1.76564 23.9513
615 1 -1.1104 0.605681 1.71951 26.7724
621 2 2.2208 5.09219 3.20765 25.2639
625 1 -1.1104 3.5514 1.72116 23.8711
628 1 -1.1104 3.64211 1.86446 26.6148
630 2 2.2208 2.18969 3.22356 22.6917
674 2 2.2208 5.23005 5.93305 22.4882
680 1 -1.1104 0.621693 4.5028 23.6265
685 1 -1.1104 0.773773 4.56804 26.5327
690 2 2.2208 2.30285 6.00569 25.4367
692 1 -1.1104 3.89369 7.52793 26.7414
694 1 -1.1104 3.48253 4.48748 24.1191
696 1 -1.1104 3.63332 4.57565 26.8749
676 1 -1.1104 0.778661 7.3183 23.8975
689 1 -1.1104 3.87253 7.16588 24.0361
678 1 -1.1104 0.956641 7.37145 26.7924
613 1 -1.1104 6.45456 1.56434 23.8958
677 1 -1.1104 6.58904 7.47394 23.8208
687 1 -1.1104 6.42099 4.60282 26.6873
617 1 -1.1104 6.44162 1.72875 26.6167
682 1 -1.1104 6.41473 4.39709 23.7569
365 2 2.2208 8.06465 11.5011 13.8738
527 1 -1.1104 11.9843 4.23676 21.3007
700 2 2.2208 7.98742 20.0299 22.1728
442 2 2.2208 -0.325843 0.393345 16.7214
636 1 -1.1104 12.3755 15.8179 23.7285
679 1 -1.1104 6.60432 7.34132 26.6898
467 1 -1.1104 9.43933 1.803 20.9672
647 1 -1.1104 12.137 1.6411 23.8649
649 1 -1.1104 12.2255 1.91152 26.664
652 2 2.2208 10.7724 3.23897 25.3936
655 1 -1.1104 9.12456 1.70801 23.5973
658 1 -1.1104 9.39901 1.82702 26.6082
660 2 2.2208 7.92463 3.10107 22.2097
706 1 -1.1104 9.40601 4.61217 26.735
708 1 -1.1104 9.29372 4.64435 24.1032
712 2 2.2208 7.95559 6.20621 25.2897
713 2 2.2208 10.862 6.00969 22.5506
715 1 -1.1104 12.3679 7.34591 23.9024
717 1 -1.1104 12.091 4.62866 23.8821
720 1 -1.1104 12.4188 4.68996 26.8849
710 1 -1.1104 9.51452 7.39583 26.5106
716 1 -1.1104 12.1473 7.27753 26.663
722 1 -1.1104 9.48379 7.41434 23.804
359 2 2.2208 2.54107 5.96865 14.0108
587 1 -1.1104 12.1911 18.8875 20.6803
498 1 -1.1104 1.01644 10.0682 20.9383
638 2 2.2208 10.8332 14.6371 25.2813
667 2 2.2208 7.8284 17.2416 25.1603
555 1 -1.1104 6.6944 12.6862 20.9923
746 1 -1.1104 3.64473 13.1472 26.4094
675 2 2.2208 5.37867 11.3359 22.3259
681 1 -1.1104 1.24786 10.1614 23.8754
684 2 2.2208 5.19164 8.74985 25.2379
686 1 -1.1104 0.979287 10.0115 26.6678
691 2 2.2208 2.54362 11.5171 25.2661
693 2 2.2208 2.32913 8.7117 22.355
695 1 -1.1104 3.96881 10.1794 23.7018
697 1 -1.1104 3.6954 10.2309 26.4904
731 1 -1.1104 3.94176 13.0506 23.5345
735 1 -1.1104 1.0465 12.832 26.511
741 1 -1.1104 0.976272 12.8577 23.873
739 1 -1.1104 6.76572 13.0829 23.6781
688 1 -1.1104 6.53442 9.97163 26.9555
683 1 -1.1104 6.58455 10.326 24.0889
730 1 -1.1104 6.4564 12.9887 26.5081
585 1 -1.1104 12.3875 13.0328 20.6966
348 2 2.2208 5.37551 -2.45432 13.8711
673 1 -1.1104 9.24545 13.2521 26.6858
664 1 -1.1104 9.6402 13.233 23.7064
634 1 -1.1104 12.0668 13.3239 26.5529
705 1 -1.1104 9.54106 10.2551 26.4088
707 1 -1.1104 9.5285 10.2735 23.646
709 2 2.2208 8.00092 8.77058 22.4133
711 2 2.2208 8.0819 11.8189 25.0988
714 2 2.2208 10.9324 11.6785 22.2611
718 1 -1.1104 12.368 10.2129 23.7179
719 2 2.2208 10.8352 8.74903 25.1282
721 1 -1.1104 12.3527 10.0457 26.4674
608 1 -1.1104 12.3034 13.2094 23.7785
725 2 2.2208 -0.354351 14.2394 25.1244
723 2 2.2208 -0.243852 17.4045 22.4518
440 2 2.2208 5.22973 -5.08629 16.6078
665 1 -1.1104 9.53049 18.4903 23.6393
698 1 -1.1104 9.63258 18.5856 26.4138
572 1 -1.1104 3.79532 18.7074 20.9815
557 1 -1.1104 6.68897 18.5904 20.8664
727 2 2.2208 2.53808 14.4294 22.3648
738 2 2.2208 5.1339 14.3647 24.947
750 2 2.2208 2.56833 20.1347 22.3806
749 1 -1.1104 3.76855 15.7931 23.6765
748 1 -1.1104 1.11777 15.7591 23.5991
745 1 -1.1104 3.5698 15.8204 26.4173
729 1 -1.1104 4.00583 18.5683 23.7255
733 1 -1.1104 1.06185 18.5433 26.5515
734 1 -1.1104 0.865191 15.6726 26.3304
737 2 2.2208 5.36961 20.2081 24.982
740 1 -1.1104 1.10244 18.7571 23.6697
742 2 2.2208 5.18049 17.1949 22.1962
743 1 -1.1104 3.64064 18.7137 26.377
744 2 2.2208 2.35796 17.1328 25.0872
670 1 -1.1104 6.5546 18.7802 26.4354
736 1 -1.1104 6.75529 18.8051 23.5428
732 1 -1.1104 6.25087 15.8683 26.6643
747 1 -1.1104 6.41272 15.683 23.8113
578 2 2.2208 13.6325 0.331257 19.4782
361 2 2.2208 2.46795 11.7942 13.9235
704 1 -1.1104 9.32393 15.9086 26.46
607 2 2.2208 10.8197 17.5386 22.2485
635 1 -1.1104 12.4911 18.7423 26.391
633 1 -1.1104 12.2575 18.5659 23.7081
604 1 -1.1104 9.46966 15.903 20.7357
666 2 2.2208 13.5426 -5.24246 25.1153
703 2 2.2208 -0.293018 11.6785 22.4486
346 2 2.2208 -0.335567 -2.28949 13.9669
351 2 2.2208 -0.352754 14.4386 13.9054
360 2 2.2208 5.31416 8.8415 13.8223
517 2 2.2208 13.6915 11.5418 19.7471
352 2 2.2208 5.3292 3.345 14.0639
364 2 2.2208 10.9883 8.78778 13.9539
368 2 2.2208 2.42265 17.1436 13.7434
380 2 2.2208 13.6533 17.3096 13.741
579 2 2.2208 13.7294 3.26367 16.8798
515 2 2.2208 -0.312712 8.89708 19.4795
370 2 2.2208 13.568 0.393324 13.9328
642 2 2.2208 -0.322613 -2.46455 25.1511
544 2 2.2208 -0.340166 3.31293 19.5762
724 2 2.2208 -0.395298 20.1456 25.1508
751 2 2.2208 5.20493 22.6255 5.19283
753 1 -1.1104 1.06036 24.3252 1.29903
754 1 -1.1104 1.00023 24.1608 3.9234
755 1 -1.1104 0.976629 21.4259 1.14997
757 2 2.2208 5.31819 25.5495 2.63263
758 1 -1.1104 0.787909 21.308 4.03036
760 1 -1.1104 3.93021 23.9761 0.964047
761 2 2.2208 2.44275 22.9303 2.29205
763 1 -1.1104 3.69176 24.2698 4.11552
764 2 2.2208 2.4588 25.7054 5.40507
765 1 -1.1104 3.98271 21.1882 0.87354
767 1 -1.1104 3.55954 21.2995 3.6721
776 1 -1.1104 6.54852 21.3932 3.96928
759 1 -1.1104 0.964361 27.0517 3.72141
773 1 -1.1104 6.71247 24.0391 3.76511
772 1 -1.1104 6.56609 24.2139 1.15593
774 1 -1.1104 6.65133 21.4241 1.00358
775 1 -1.1104 6.80534 26.936 1.14856
756 1 -1.1104 1.22761 26.8752 0.915043
766 1 -1.1104 3.89661 26.8304 1.22338
777 1 -1.1104 6.83384 26.9058 3.92821
768 1 -1.1104 3.81461 26.9608 3.89899
898 1 -1.1104 3.85491 24.2542 6.91746
1139 1 -1.1104 6.3572 46.7849 12.5811
1122 2 2.2208 8.27155 25.675 -0.315988
893 1 -1.1104 6.48462 24.0828 6.56228
778 2 2.2208 10.9502 22.9065 5.18966
780 1 -1.1104 12.3665 24.2606 1.22394
781 1 -1.1104 12.2434 24.4626 3.81666
782 1 -1.1104 12.0369 21.3426 1.01037
784 2 2.2208 10.7722 25.7053 2.60983
785 1 -1.1104 12.3549 21.4118 3.95116
787 1 -1.1104 9.51512 24.3798 1.12406
788 2 2.2208 8.02568 22.6104 2.39156
790 1 -1.1104 9.42581 24.19 3.72109
791 2 2.2208 8.21077 25.4618 5.18141
792 1 -1.1104 9.37165 21.3106 1.09475
794 1 -1.1104 9.52992 21.342 3.82268
928 1 -1.1104 9.42159 24.3421 6.60383
786 1 -1.1104 12.4827 27.2244 3.8939
1673 1 -1.1104 0.975823 46.8849 6.88311
925 1 -1.1104 12.1902 24.2814 6.62122
795 1 -1.1104 9.61515 27.0519 3.99046
1090 2 2.2208 8.00035 22.7945 13.6478
1127 2 2.2208 5.16688 34.2994 -0.427279
930 1 -1.1104 9.61208 26.9824 6.68895
752 2 2.2208 5.4176 28.2389 5.22255
762 2 2.2208 2.40899 28.3538 2.34294
800 1 -1.1104 0.90041 29.845 0.975429
803 1 -1.1104 1.07601 30.053 3.70123
806 1 -1.1104 1.19585 32.5229 1.23958
807 2 2.2208 5.08265 31.2689 2.57251
809 1 -1.1104 0.95995 32.998 3.86031
811 1 -1.1104 3.76613 29.8061 0.938373
814 1 -1.1104 3.83757 29.7449 3.79728
816 2 2.2208 2.17921 31.1641 5.29546
818 1 -1.1104 3.8022 32.6202 0.918511
819 1 -1.1104 3.65721 32.667 3.78244
825 1 -1.1104 6.64666 32.5194 1.01108
824 1 -1.1104 6.75398 29.7302 3.95378
810 1 -1.1104 6.47504 32.7188 3.97255
1070 2 2.2208 13.5912 25.7605 10.9541
1141 1 -1.1104 9.3457 46.7371 6.73515
793 1 -1.1104 9.33399 27.0822 1.08772
823 1 -1.1104 6.63823 29.6777 1.3073
783 1 -1.1104 12.3027 27.0841 1.0551
779 2 2.2208 10.8633 28.4989 5.25253
789 2 2.2208 8.11673 28.4628 2.47416
827 1 -1.1104 12.4541 30.0271 0.954445
829 1 -1.1104 12.1211 30.0107 3.77273
831 1 -1.1104 12.5062 32.7918 0.933894
832 2 2.2208 10.9207 31.3364 2.24556
834 1 -1.1104 12.4274 32.8185 3.75729
835 1 -1.1104 9.66554 29.9129 1.14741
838 1 -1.1104 9.39821 29.723 4.02847
840 2 2.2208 8.05595 31.1423 5.33886
842 1 -1.1104 9.42743 32.7353 0.889954
843 1 -1.1104 9.37634 32.735 3.85711
986 1 -1.1104 9.29093 29.8144 6.83102
983 1 -1.1104 12.188 29.8189 6.55497
1083 1 -1.1104 12.4259 46.733 6.97569
1082 2 2.2208 13.7981 45.0339 7.86007
799 2 2.2208 5.06761 34.1032 5.24932
801 1 -1.1104 1.07283 35.5141 1.03702
804 1 -1.1104 0.990042 35.5747 4.03061
808 2 2.2208 5.36253 36.7839 2.39869
812 1 -1.1104 3.8154 35.4026 0.892057
813 2 2.2208 2.44406 34.1234 2.39189
815 1 -1.1104 3.90316 35.5518 3.78289