ITEM: TIMESTEP
40000
ITEM: NUMBER OF ATOMS
17700
ITEM: BOX BOUNDS pp pp pp
-4.3590565078391863e-01 2.7775905650783670e+01
-5.4403891872524381e+00 3.3352038918725094e+02
-4.5031980019025053e-01 2.7790319800190424e+01
ITEM: ATOMS id type q x y z
1 2 2.2208 4.75849 0.279586 4.97503
2 1 -1.1104 0.811042 -3.87412 0.753209
6 1 -1.1104 0.982329 -3.79799 3.68638
10 1 -1.1104 0.587398 -1.16249 0.793484
12 2 2.2208 4.89775 -2.64018 2.26524
14 1 -1.1104 0.960876 -1.18174 3.80933
16 1 -1.1104 3.63385 -4.2454 0.949623
18 2 2.2208 2.06128 0.212603 2.05475
19 1 -1.1104 3.57448 -4.21786 3.77243
21 2 2.2208 2.04196 -2.58535 5.24845
23 1 -1.1104 3.37514 -1.38487 0.908262
24 1 -1.1104 3.66813 -1.20717 3.76793
174 1 -1.1104 3.50424 -1.12643 6.68897
172 1 -1.1104 3.40025 -3.97758 6.53692
166 1 -1.1104 0.470008 -4.08735 6.40214
11 1 -1.1104 6.3565 -1.42707 0.643426
8 1 -1.1104 6.47429 -4.0882 3.82921
339 2 2.2208 13.4357 5.8664 7.6956
357 2 2.2208 10.6208 3.04422 13.4357
4 1 -1.1104 6.22157 -4.06021 0.89183
15 1 -1.1104 6.30889 -1.2662 3.45883
31 2 2.2208 10.4927 0.151817 4.99265
32 1 -1.1104 11.8364 -4.07149 0.828354
34 1 -1.1104 12.0306 -4.08134 3.87439
36 1 -1.1104 11.9155 -1.1421 0.903867
37 2 2.2208 10.4481 -2.58572 2.30492
39 1 -1.1104 11.8975 -1.33863 3.6119
40 1 -1.1104 9.14269 -4.17918 0.683335
42 2 2.2208 7.66721 0.122037 2.10888
43 1 -1.1104 9.36586 -4.13101 3.58575
45 2 2.2208 7.78108 -2.49075 5.18789
47 1 -1.1104 9.39382 -1.03342 0.734378
48 1 -1.1104 9.1495 -1.31167 3.58067
210 1 -1.1104 9.14046 -1.16115 6.5531
168 1 -1.1104 6.24806 -3.97556 6.53309
171 1 -1.1104 6.25368 -1.2995 6.34422
208 1 -1.1104 9.04515 -3.88823 6.63698
49 2 2.2208 13.4829 0.0330172 2.22678
3 1 -1.1104 0.67613 1.55488 0.804118
7 1 -1.1104 0.863939 1.59608 3.74606
13 2 2.2208 4.87824 2.93792 2.23978
17 1 -1.1104 3.55811 1.63701 0.737131
20 1 -1.1104 3.4647 1.65759 3.51575
22 2 2.2208 2.09455 3.04428 4.97307
54 2 2.2208 5.05417 5.90425 4.96985
56 1 -1.1104 0.885474 7.20652 0.796893
60 1 -1.1104 0.482853 4.38767 0.845018
67 1 -1.1104 0.944024 4.41514 3.80153
72 2 2.2208 2.21467 5.76948 2.16457
74 1 -1.1104 3.59027 7.29948 3.51137
76 1 -1.1104 3.53273 4.45613 0.800264
79 1 -1.1104 3.65524 4.50372 3.63873
63 1 -1.1104 6.45867 4.42508 0.88257
236 1 -1.1104 0.755233 4.41035 6.54449
5 1 -1.1104 6.36747 1.50359 0.649263
71 1 -1.1104 3.47997 7.10799 0.712582
58 1 -1.1104 0.718885 7.31475 3.55812
238 1 -1.1104 3.46672 7.41294 6.35382
173 1 -1.1104 3.52991 1.63048 6.48696
59 1 -1.1104 6.60769 7.09962 3.73069
9 1 -1.1104 6.20978 1.57675 3.42294
69 1 -1.1104 6.26462 4.35677 3.74094
239 1 -1.1104 3.73571 4.74717 6.55219
364 2 2.2208 10.6969 8.66349 13.5505
237 1 -1.1104 6.52055 4.29969 6.6359
57 1 -1.1104 6.29071 7.06178 0.843623
33 1 -1.1104 12.0859 1.71403 0.843168
35 1 -1.1104 11.9773 1.45684 3.7118
38 2 2.2208 10.8795 3.04177 2.16393
41 1 -1.1104 9.02714 1.60818 0.76344
44 1 -1.1104 9.27605 1.56438 3.50756
46 2 2.2208 7.90189 3.18232 4.9688
84 2 2.2208 10.4536 5.94474 4.93697
86 1 -1.1104 12.2108 7.33916 1.12234
88 1 -1.1104 12.1576 4.41874 0.612148
92 1 -1.1104 12.1101 4.27447 3.5804
94 1 -1.1104 9.46632 7.34472 0.74925
95 2 2.2208 7.74704 5.78285 2.22247
99 1 -1.1104 9.38677 4.4794 0.924187
102 1 -1.1104 9.26988 4.40545 3.63499
97 1 -1.1104 9.07648 7.32863 3.4858
169 1 -1.1104 6.30201 1.70124 6.27265
209 1 -1.1104 9.12852 1.75487 6.09525
265 1 -1.1104 12.0913 7.48593 6.59934
335 2 2.2208 13.5559 8.66943 5.0426
334 2 2.2208 13.2979 3.02597 5.14718
360 2 2.2208 5.01313 8.5214 13.4513
55 2 2.2208 4.86494 11.4759 5.14554
61 1 -1.1104 0.826874 9.98884 0.728516
66 2 2.2208 4.92053 8.66125 2.38002
68 1 -1.1104 0.575452 10.1365 3.60521
73 2 2.2208 2.14059 11.4444 2.27176
75 2 2.2208 2.1943 8.64846 4.93177
77 1 -1.1104 3.72989 10.054 0.828375
80 1 -1.1104 3.44803 10.2204 3.77852
107 1 -1.1104 0.728285 12.9425 0.707669
113 1 -1.1104 0.650929 13.0552 3.7298
123 1 -1.1104 3.65764 12.8242 0.998273
128 1 -1.1104 3.51084 12.8282 3.70229
78 1 -1.1104 3.54976 10.0212 6.57925
108 1 -1.1104 0.770886 13.0748 6.27031
62 1 -1.1104 0.861314 10.0149 6.42991
110 1 -1.1104 6.44546 12.946 0.958187
70 1 -1.1104 6.28016 9.83996 3.64775
87 1 -1.1104 12.1866 7.1536 3.74326
64 1 -1.1104 6.41752 9.92952 0.951435
115 1 -1.1104 6.28564 12.6603 3.52831
85 2 2.2208 10.6378 11.4191 5.08943
89 1 -1.1104 11.8952 10.1239 1.0115
91 2 2.2208 10.6781 8.65747 2.2512
93 1 -1.1104 12.0926 10.1067 3.74571
96 2 2.2208 7.7631 11.4319 2.24317
98 2 2.2208 7.79592 8.72204 5.01084
100 1 -1.1104 9.10231 10.1072 0.60814
103 1 -1.1104 9.25103 10.2997 3.60304
142 1 -1.1104 11.9072 13.0622 1.01849
146 1 -1.1104 11.8892 13.0237 3.71271
153 1 -1.1104 9.15621 12.9474 0.806088
158 1 -1.1104 9.17743 12.9676 3.81075
101 1 -1.1104 9.1511 10.0834 6.53196
90 1 -1.1104 12.0259 10.1718 6.41946
363 2 2.2208 7.70568 5.70175 13.5638
380 2 2.2208 13.3339 17.3614 13.5725
111 1 -1.1104 6.24096 12.994 6.34907
154 1 -1.1104 9.3038 12.7976 6.63669
143 1 -1.1104 12.0509 12.7856 6.28346
130 2 2.2208 2.25569 14.4425 5.16099
119 2 2.2208 5.05882 14.1985 2.36367
106 2 2.2208 5.23197 17.2268 5.07143
109 1 -1.1104 0.870129 18.5894 0.65301
114 1 -1.1104 0.898646 18.3667 3.45222
116 1 -1.1104 0.939899 15.7552 0.863558
120 2 2.2208 4.86974 19.9047 2.35684
121 1 -1.1104 0.732277 15.7253 3.75648
125 1 -1.1104 3.64104 18.3968 0.708394
127 2 2.2208 2.35066 16.9846 2.36094
129 1 -1.1104 3.59565 18.4105 3.49105
131 2 2.2208 2.23603 19.9118 4.99048
132 1 -1.1104 3.58833 15.6335 0.925145
134 1 -1.1104 3.72153 15.6469 3.7326
122 1 -1.1104 6.50906 15.6039 3.70225
140 1 -1.1104 6.33537 15.8643 0.951023
138 1 -1.1104 6.41254 18.5503 0.779399
112 1 -1.1104 6.51866 18.3785 6.37021
117 1 -1.1104 0.736345 15.7995 6.55524
126 1 -1.1104 3.63855 18.6097 6.3146
133 1 -1.1104 3.6851 15.7197 6.43282
139 1 -1.1104 6.66506 18.4913 3.50775
160 2 2.2208 7.79178 14.2574 5.25253
150 2 2.2208 10.6084 14.434 2.47633
141 2 2.2208 10.622 17.0846 5.22218
144 1 -1.1104 11.816 18.4477 0.962662
147 1 -1.1104 12.0055 18.6758 3.90145
148 1 -1.1104 12.1306 15.6484 0.886352
151 2 2.2208 10.6565 20.0061 2.25075
152 1 -1.1104 11.9442 15.8444 3.67069
155 1 -1.1104 9.30657 18.6548 0.903478
157 2 2.2208 8.14506 17.3229 2.15171
159 1 -1.1104 9.22954 18.7169 3.8272
161 2 2.2208 7.85993 19.8432 4.92742
162 1 -1.1104 9.38759 15.8153 0.936468
164 1 -1.1104 9.30141 15.8025 3.77309
156 1 -1.1104 9.34984 18.4739 6.51666
145 1 -1.1104 11.9311 18.5178 6.67983
404 2 2.2208 4.96776 17.0601 -0.473265
165 2 2.2208 13.3964 17.0523 2.1257
163 1 -1.1104 9.13386 15.5376 6.55256
149 1 -1.1104 12.1103 15.4629 6.58982
170 1 -1.1104 0.471795 -1.23388 6.40714
175 2 2.2208 4.99689 0.146629 10.6464
176 1 -1.1104 0.630459 -4.03338 12.1508
180 1 -1.1104 0.487566 -4.03316 9.31011
184 1 -1.1104 0.554023 -1.01858 12.2661
186 2 2.2208 4.90256 -2.6968 7.80477
188 1 -1.1104 0.873292 -1.36411 9.27686
190 1 -1.1104 3.46215 -4.17907 12.0478
192 2 2.2208 2.16425 0.292883 7.96772
193 1 -1.1104 3.31534 -4.41924 9.25011
195 2 2.2208 2.25714 -2.72644 10.6472
197 1 -1.1104 3.27631 -1.31443 12.234
198 1 -1.1104 3.73675 -1.22127 9.43475
182 1 -1.1104 6.1396 -3.88725 9.38289
178 1 -1.1104 6.53093 -4.27855 11.9594
333 2 2.2208 13.6587 14.0437 10.7079
189 1 -1.1104 6.28426 -1.26292 9.01486
348 2 2.2208 4.95946 -2.76199 13.345
29 2 2.2208 4.78383 -5.42885 5.10878
362 2 2.2208 13.5503 11.3041 13.597
205 1 -1.1104 11.8743 -4.23211 6.65402
207 1 -1.1104 11.8205 -1.2362 6.61869
185 1 -1.1104 6.32722 -1.42151 12.0497
211 2 2.2208 10.6402 -0.0138574 10.7457
212 1 -1.1104 12.1687 -3.90887 12.3592
214 1 -1.1104 11.9929 -4.09954 9.4422
216 1 -1.1104 11.9443 -1.22443 12.2382
217 2 2.2208 10.6309 -2.77441 7.95495
219 1 -1.1104 12.3067 -1.16897 9.39081
220 1 -1.1104 9.40528 -4.24072 12.3759
222 2 2.2208 7.7505 0.273203 7.69785
223 1 -1.1104 9.03386 -4.35848 9.5114
225 2 2.2208 7.8579 -2.69956 10.66
227 1 -1.1104 9.26662 -1.28034 12.2052
228 1 -1.1104 9.32332 -1.46747 9.39054
53 2 2.2208 13.2465 -5.33091 2.31191
167 1 -1.1104 0.734846 1.74286 6.43299
235 1 -1.1104 6.48308 7.037 6.4906
234 1 -1.1104 0.584179 7.41718 6.22864
341 2 2.2208 13.5451 8.63218 10.6432
177 1 -1.1104 1.05171 1.66809 12.2489
181 1 -1.1104 0.710626 1.35449 9.51543
187 2 2.2208 5.1421 3.08652 7.86833
191 1 -1.1104 3.95292 1.42316 12.322
194 1 -1.1104 3.58229 1.53283 9.3817
196 2 2.2208 2.14653 3.07298 10.6215
240 2 2.2208 4.88958 5.82464 10.7178
242 1 -1.1104 0.676854 7.15489 12.1472
244 1 -1.1104 0.676432 7.33559 9.14652
246 1 -1.1104 0.589427 4.44989 12.084
251 1 -1.1104 0.943215 4.29181 9.31827
255 1 -1.1104 3.623 7.17118 11.9392
256 2 2.2208 2.22616 5.86616 7.84238
258 1 -1.1104 3.67998 7.29884 9.30613
260 1 -1.1104 3.49149 4.32548 12.1093
262 1 -1.1104 3.73092 4.34898 9.2031
243 1 -1.1104 6.48859 7.08294 11.9621
245 1 -1.1104 6.43473 7.26213 9.09146
288 1 -1.1104 6.42132 18.6406 9.19666
253 1 -1.1104 6.55222 4.24147 9.52975
183 1 -1.1104 6.53014 1.47344 9.29968
370 2 2.2208 13.5088 0.196561 13.4568
206 1 -1.1104 12.062 1.57194 6.58577
266 1 -1.1104 11.9827 4.46346 6.38765
267 1 -1.1104 9.3556 7.49494 6.36071
269 1 -1.1104 9.08661 4.60706 6.43181
229 2 2.2208 13.3815 0.228742 7.89998
179 1 -1.1104 6.68703 1.21224 11.9791
248 1 -1.1104 6.41744 4.29613 12.2236
213 1 -1.1104 12.252 1.60465 12.3496
215 1 -1.1104 11.9929 1.59438 9.37332
218 2 2.2208 10.6671 3.08486 7.71563
221 1 -1.1104 9.59988 1.75591 11.7351
224 1 -1.1104 9.21676 1.36185 8.99359
226 2 2.2208 7.90505 2.93956 10.716
268 1 -1.1104 9.17027 4.39322 9.38425
271 1 -1.1104 9.18803 4.50807 12.1878
273 1 -1.1104 9.3091 7.35507 9.41927
275 2 2.2208 7.74268 5.68217 7.97304
276 2 2.2208 10.5742 5.78105 10.7112
278 1 -1.1104 12.1076 7.33798 12.2594
279 1 -1.1104 12.0721 7.21273 9.51176
280 1 -1.1104 11.9935 4.48708 12.1141
283 1 -1.1104 12.1218 4.46055 9.10351
285 1 -1.1104 9.20069 7.46401 12.2427
365 2 2.2208 7.85713 11.3607 13.6734
124 1 -1.1104 3.51508 12.8984 6.66801
65 1 -1.1104 6.26276 10.0252 6.41491
349 2 2.2208 2.23925 0.202851 13.5556
338 2 2.2208 13.4795 3.02061 10.8229
287 1 -1.1104 3.85319 12.7617 12.3102
305 1 -1.1104 3.70006 12.8802 9.47658
299 1 -1.1104 0.907226 12.4867 12.0675
294 1 -1.1104 0.802005 12.9743 9.22591
241 2 2.2208 5.14764 11.4791 10.7192
247 1 -1.1104 0.916379 9.79851 11.9102
250 2 2.2208 5.03038 8.75887 7.88002
252 1 -1.1104 0.758009 10.2672 9.10251
257 2 2.2208 2.28914 11.5247 7.85338
259 2 2.2208 2.23763 8.59122 10.6235
261 1 -1.1104 3.70561 10.1302 12.1524
263 1 -1.1104 3.62277 10.137 9.37011
290 1 -1.1104 6.5732 12.8209 9.22929
249 1 -1.1104 6.79281 10.1191 12.0686
254 1 -1.1104 6.40772 10.0797 9.34916
297 1 -1.1104 6.48021 12.8489 12.2184
336 2 2.2208 13.4459 19.8198 5.19865
230 2 2.2208 13.5229 -2.61186 10.725
330 1 -1.1104 12.2387 12.8716 12.3163
328 1 -1.1104 12.1417 12.8837 9.3982
322 1 -1.1104 9.2056 12.9981 12.2233
319 1 -1.1104 9.30286 12.658 9.46169
264 1 -1.1104 9.11549 10.122 9.22262
270 1 -1.1104 9.51101 10.1362 12.1262
272 2 2.2208 8.05185 8.69062 10.8422
274 2 2.2208 7.89422 11.4382 7.87084
277 2 2.2208 10.7804 11.6473 10.884
281 1 -1.1104 12.1528 10.0863 11.965
282 2 2.2208 10.5673 8.73217 7.87235
284 1 -1.1104 12.0578 10.0854 9.35993
356 2 2.2208 10.7878 -2.71149 13.565
345 2 2.2208 13.4472 19.8961 10.7247
302 1 -1.1104 0.569394 18.5006 6.40789
231 2 2.2208 7.61854 -5.41393 7.86709
323 1 -1.1104 12.1008 15.5271 9.21984
320 2 2.2208 7.90148 17.018 8.14516
296 1 -1.1104 6.26196 18.52 12.0857
306 1 -1.1104 6.47359 15.8085 12.1307
310 2 2.2208 2.39284 14.1079 10.7971
295 2 2.2208 5.01486 14.3439 7.86332
309 2 2.2208 2.26729 19.9013 10.84
308 1 -1.1104 3.66955 15.6851 12.0926
307 1 -1.1104 0.702449 15.4628 12.3018
304 1 -1.1104 3.48432 15.5617 9.20187
303 2 2.2208 1.96999 17.002 8.01646
301 1 -1.1104 3.59325 18.3064 9.25252
300 2 2.2208 4.83701 17.1307 10.7021
298 1 -1.1104 0.782862 18.4512 12.0034
293 2 2.2208 4.98826 19.8386 8.02554
292 1 -1.1104 0.771176 15.4701 9.52697
291 1 -1.1104 0.682671 18.2615 9.28124
286 1 -1.1104 3.41305 18.3485 12.0026
289 1 -1.1104 6.4361 15.5242 9.33949
359 2 2.2208 2.00792 5.81578 13.4323
368 2 2.2208 2.21437 16.9879 13.5235
118 1 -1.1104 6.30468 15.7452 6.69784
326 1 -1.1104 12.0834 15.8682 12.1188
316 2 2.2208 7.6116 20.0043 10.8509
332 2 2.2208 13.2937 16.9838 7.8665
324 2 2.2208 10.5053 19.9008 7.98827
372 2 2.2208 10.5909 19.8823 13.4481
321 1 -1.1104 9.15022 18.6744 12.0616
315 1 -1.1104 9.20912 15.8033 12.3873
355 2 2.2208 7.86922 0.0641256 13.5196
337 2 2.2208 13.3283 14.3476 5.02386
327 1 -1.1104 11.943 18.4669 9.28249
317 2 2.2208 7.93708 14.3511 10.9425
331 2 2.2208 10.648 17.1209 10.7652
325 2 2.2208 10.6928 14.1075 7.98499
329 1 -1.1104 12.0461 18.725 12.1464
318 1 -1.1104 9.19481 18.6119 9.33315
314 1 -1.1104 9.34935 15.6306 9.38624
50 2 2.2208 13.2864 -2.66672 5.18853
105 2 2.2208 13.6415 5.74329 2.37839
104 2 2.2208 13.381 11.5567 2.51484
366 2 2.2208 13.5496 5.87995 13.6495
400 2 2.2208 10.8051 11.7103 -0.463859
340 2 2.2208 13.4752 11.361 7.67044
392 2 2.2208 13.5805 2.87716 -0.51623
376 2 2.2208 7.75732 17.0137 13.6233
361 2 2.2208 2.28584 11.3613 13.4261
377 2 2.2208 7.9023 14.3856 -0.478452
406 2 2.2208 5.03541 0.127429 16.3841
407 1 -1.1104 0.812173 -4.03359 17.7258
411 1 -1.1104 0.762206 -3.90716 14.7793
419 1 -1.1104 0.722436 -1.04579 17.7332
421 2 2.2208 4.92983 -2.56857 19.0476
423 1 -1.1104 0.756475 -1.2344 14.9277
427 1 -1.1104 3.55286 -4.2603 17.7135
429 2 2.2208 2.2637 0.155152 19.1341
430 1 -1.1104 3.59751 -3.98164 14.8042
434 2 2.2208 2.33108 -2.52469 16.1053
436 1 -1.1104 3.40154 -1.383 17.6184
437 1 -1.1104 3.54909 -1.19023 14.9488
420 1 -1.1104 6.3199 -1.26224 17.7049
438 1 -1.1104 3.59609 -1.18815 20.6873
431 1 -1.1104 3.48551 -3.9767 20.3691
409 1 -1.1104 6.2593 -3.87718 17.8142
415 1 -1.1104 6.36725 -4.20386 14.8747
412 1 -1.1104 0.684963 -4.05161 20.6165
399 2 2.2208 7.79232 8.70577 27.659
426 1 -1.1104 6.39142 -1.35879 20.6896
424 1 -1.1104 0.739492 -1.23093 20.4013
479 2 2.2208 13.6201 16.9582 19.1096
728 2 2.2208 13.1277 5.7775 24.9494
425 1 -1.1104 6.3173 -1.27628 15.0225
449 2 2.2208 10.6155 0.156135 16.2509
450 1 -1.1104 11.7935 -4.22421 18.1315
452 1 -1.1104 12.0887 -4.19749 15.1527
456 1 -1.1104 11.8311 -1.43407 17.7827
457 2 2.2208 10.3037 -2.76979 19.0514
459 1 -1.1104 12.0155 -1.39501 14.9555
461 1 -1.1104 9.02764 -3.98858 17.7162
463 2 2.2208 7.67573 0.0564056 19.3163
464 1 -1.1104 9.13917 -4.20368 15.0087
468 2 2.2208 7.73706 -2.69357 16.2113
470 1 -1.1104 9.14375 -1.00169 17.7111
471 1 -1.1104 9.16608 -1.35825 14.8488
453 1 -1.1104 12.0288 -4.20498 20.9059
465 1 -1.1104 9.25146 -4.02836 20.6721
383 2 2.2208 2.20901 2.96871 27.552
726 2 2.2208 13.6485 11.2218 24.8751
408 1 -1.1104 0.965895 1.59276 17.8994
413 1 -1.1104 0.786771 1.55396 15.034
422 2 2.2208 5.03316 2.89542 19.0907
428 1 -1.1104 3.68214 1.54434 17.6594
432 1 -1.1104 3.66954 1.49553 15.0039
435 2 2.2208 2.034 2.9913 16.3077
482 2 2.2208 5.20879 5.69852 16.4642
490 1 -1.1104 0.752848 4.30596 17.8395
495 1 -1.1104 0.580446 4.28006 15.0919
503 1 -1.1104 3.70187 7.44363 17.5943
504 2 2.2208 2.06166 5.86189 19.27
509 1 -1.1104 3.73784 4.60284 17.9451
511 1 -1.1104 3.68242 4.42354 14.9694
484 1 -1.1104 0.78434 7.1453 17.8458
506 1 -1.1104 3.58042 7.20005 14.8045
486 1 -1.1104 0.753874 7.2368 14.9629
414 1 -1.1104 0.861765 1.43714 20.6166
512 1 -1.1104 3.6158 4.28378 20.4401
418 1 -1.1104 6.32163 1.47263 20.6976
507 1 -1.1104 3.58284 7.22303 20.3247
496 1 -1.1104 0.631403 4.43287 20.4696
487 1 -1.1104 0.872604 7.45527 20.5387
410 1 -1.1104 6.29056 1.5247 17.769
433 1 -1.1104 3.60109 1.80009 20.6116
417 1 -1.1104 6.42958 1.61416 14.9008
485 1 -1.1104 6.3539 7.1311 17.7828
488 1 -1.1104 6.40258 7.11562 14.9269
492 1 -1.1104 6.42599 4.31327 17.7138
489 1 -1.1104 6.57724 7.40716 20.5419
500 1 -1.1104 6.36062 4.35736 20.4935
499 1 -1.1104 6.51221 4.23982 14.9375
451 1 -1.1104 12.0702 1.52865 17.7115
454 1 -1.1104 11.9344 1.39564 14.9886
458 2 2.2208 10.4622 3.07867 19.1028
462 1 -1.1104 9.17156 1.59231 17.7266
466 1 -1.1104 9.13902 1.57815 14.8907
469 2 2.2208 7.83399 2.92016 16.2858
518 2 2.2208 10.573 5.71896 16.3074
521 1 -1.1104 12.1375 7.13873 15.18
523 1 -1.1104 11.954 4.28084 17.7162
526 1 -1.1104 12.0033 4.19215 15.064
530 1 -1.1104 9.15768 7.2987 17.8797
531 2 2.2208 7.88555 5.89105 19.1437
536 1 -1.1104 9.22145 4.45744 17.7848
538 1 -1.1104 9.17029 4.37997 14.8566
520 1 -1.1104 11.9922 7.23137 17.8857
533 1 -1.1104 9.18777 7.09166 15.0219
534 1 -1.1104 9.27994 7.18153 20.6286
527 1 -1.1104 11.9083 4.56213 20.6128
467 1 -1.1104 8.97603 1.42374 20.5715
403 2 2.2208 2.26788 14.2985 27.6562
578 2 2.2208 13.1257 0.0362164 19.2854
483 2 2.2208 5.04828 11.339 16.394
491 1 -1.1104 0.675639 10.1609 17.5726
494 2 2.2208 5.16366 8.5657 19.138
497 1 -1.1104 0.893215 10.0302 14.8315
505 2 2.2208 2.24946 11.5143 19.0695
508 2 2.2208 2.27565 8.5821 16.372
510 1 -1.1104 3.79917 10.1187 17.7667
513 1 -1.1104 3.72276 9.99614 14.9384
546 1 -1.1104 0.77137 12.8478 17.9008
550 1 -1.1104 0.710006 12.8085 15.0061
566 1 -1.1104 3.58568 12.7763 17.7536
569 1 -1.1104 3.643 12.6757 15.0166
554 1 -1.1104 6.53202 12.9664 15.027
548 1 -1.1104 6.51161 12.8699 17.8589
551 1 -1.1104 0.907657 12.9334 20.7054
498 1 -1.1104 0.801182 10.2424 20.3373
570 1 -1.1104 3.88693 12.9477 20.5428
501 1 -1.1104 6.37054 9.94331 14.9152
502 1 -1.1104 6.4718 10.2881 20.5266
493 1 -1.1104 6.71565 9.71701 17.8623
514 1 -1.1104 3.60001 10.1646 20.6812
446 2 2.2208 13.5921 2.95752 22.0309
543 2 2.2208 13.4552 8.70052 16.4672
405 2 2.2208 2.27901 19.9765 27.6342
519 2 2.2208 10.8156 11.5344 16.4437
524 1 -1.1104 12.0947 10.1935 17.6772
525 2 2.2208 10.6292 8.66152 19.1014
528 1 -1.1104 12.1101 10.0542 15.0407
532 2 2.2208 7.82923 11.5052 19.3268
535 2 2.2208 7.90129 8.61787 16.3868
537 1 -1.1104 9.44835 10.2256 17.6279
540 1 -1.1104 9.22419 9.86428 14.934
582 1 -1.1104 11.8962 12.92 17.77
584 1 -1.1104 12.1429 13.0328 15.0298
593 1 -1.1104 9.23557 12.7613 17.9398
596 1 -1.1104 9.18376 12.8671 15.0214
529 1 -1.1104 12.1753 10.1513 20.5961
541 1 -1.1104 9.20512 10.0918 20.4318
585 1 -1.1104 12.1175 12.7581 20.6526
371 2 2.2208 5.08295 14.1741 13.6533
375 2 2.2208 13.3844 19.9912 27.5937
560 2 2.2208 4.88248 14.3026 19.0597
573 2 2.2208 2.08163 14.1832 16.2753
545 2 2.2208 5.10335 17.0126 16.3114
547 1 -1.1104 0.791587 18.495 17.6304
552 1 -1.1104 0.743842 18.493 14.6595
558 1 -1.1104 0.725327 15.7529 17.594
561 2 2.2208 5.11019 19.8303 19.2906
562 1 -1.1104 0.59671 15.623 14.9436
567 1 -1.1104 3.58928 18.1816 17.7103
568 2 2.2208 2.11514 17.0867 19.2836
571 1 -1.1104 3.72453 18.3822 14.8782
574 2 2.2208 2.26227 19.9092 16.4867
575 1 -1.1104 3.48371 15.3907 17.5943
576 1 -1.1104 3.40911 15.6087 14.7369
563 1 -1.1104 0.792394 15.6361 20.8462
572 1 -1.1104 3.48293 18.3645 20.5491
577 1 -1.1104 3.75646 15.7573 20.2778
553 1 -1.1104 0.545795 18.5231 20.3176
564 1 -1.1104 6.54067 15.6745 15.057
549 1 -1.1104 6.40743 18.371 17.7228
557 1 -1.1104 6.30052 18.5067 20.7037
559 1 -1.1104 6.48861 15.4452 17.6694
556 1 -1.1104 6.39138 18.3038 14.9187
480 2 2.2208 13.502 14.323 16.2484
478 2 2.2208 13.6256 19.9518 16.507
565 1 -1.1104 6.49531 15.7219 20.4612
589 2 2.2208 10.7615 14.4403 19.2758
600 2 2.2208 7.94496 14.2082 16.474
581 2 2.2208 10.8468 17.0902 16.5764
583 1 -1.1104 12.3688 18.2834 17.8323
586 1 -1.1104 12.0919 18.5138 15.1529
588 1 -1.1104 12.3056 15.6891 17.6046
590 2 2.2208 10.6447 19.9329 19.3154
591 1 -1.1104 12.2299 15.6499 14.6945
594 1 -1.1104 9.49037 18.4034 17.8284
595 2 2.2208 7.84174 17.1541 19.0939
598 1 -1.1104 9.40635 18.3752 14.9136
601 2 2.2208 7.91693 19.6584 16.4741
602 1 -1.1104 9.2623 15.6104 17.9314
603 1 -1.1104 9.29477 15.7201 15.2635
592 1 -1.1104 12.2442 15.6497 20.3752
587 1 -1.1104 11.827 18.3127 20.8435
599 1 -1.1104 8.9857 18.7221 20.4167
671 2 2.2208 13.1921 -2.74596 22.0304
580 2 2.2208 13.5298 14.0208 22.0697
606 2 2.2208 13.3017 19.7066 22.0898
391 2 2.2208 13.4267 -2.73526 27.6025
387 2 2.2208 10.6218 0.147134 27.5576
609 2 2.2208 4.94102 0.277505 22.1104
610 1 -1.1104 0.701325 -3.97524 23.3376
614 1 -1.1104 0.766381 -4.05802 26.2462
618 1 -1.1104 0.726297 -1.2566 23.2725
620 2 2.2208 4.9845 -2.87972 24.7349
622 1 -1.1104 0.722701 -1.31468 26.0934
624 1 -1.1104 3.43167 -4.07468 23.3414
626 2 2.2208 2.25426 0.141235 24.8532
627 1 -1.1104 3.49556 -4.15404 26.2351
629 2 2.2208 2.11333 -2.62389 21.8659
631 1 -1.1104 3.43655 -1.47126 23.4479
632 1 -1.1104 3.32466 -1.23878 26.3487
612 1 -1.1104 6.32744 -4.38842 23.1081
623 1 -1.1104 6.16119 -1.44014 26.1424
605 2 2.2208 13.5117 17.008 24.8409
382 2 2.2208 1.95472 -2.61264 27.5186
416 1 -1.1104 6.30052 -4.15254 20.4825
460 1 -1.1104 11.7014 -1.3101 20.7379
388 2 2.2208 7.76052 -2.85304 27.5487
616 1 -1.1104 6.28756 -4.30798 26.3263
619 1 -1.1104 6.11626 -1.46561 23.4362
472 1 -1.1104 8.93123 -1.17189 20.7056
645 2 2.2208 10.4189 0.0921214 22.1441
646 1 -1.1104 11.9302 -4.01098 23.5212
648 1 -1.1104 12.1636 -4.33123 26.4732
650 1 -1.1104 11.7316 -1.1819 23.4863
651 2 2.2208 10.4879 -2.78859 25.0091
653 1 -1.1104 11.8655 -1.26564 26.2482
654 1 -1.1104 9.26052 -4.05331 23.4134
656 2 2.2208 7.56834 0.120566 24.7695
657 1 -1.1104 9.24671 -4.18502 26.2047
659 2 2.2208 7.75216 -2.66757 21.977
661 1 -1.1104 8.86141 -1.35904 23.595
662 1 -1.1104 9.04256 -1.49372 26.0937
445 2 2.2208 13.4009 8.5744 21.9971
381 2 2.2208 4.85722 0.0423743 27.7784
704 1 -1.1104 9.28274 15.698 26.3474
607 2 2.2208 10.7165 17.0179 22.1721
393 2 2.2208 4.99521 5.59262 27.6517
611 1 -1.1104 0.696811 1.38566 23.4172
615 1 -1.1104 0.758432 1.53336 26.1997
621 2 2.2208 4.91578 3.03923 24.602
625 1 -1.1104 3.49345 1.51273 23.3337
628 1 -1.1104 3.50098 1.54609 26.2462
630 2 2.2208 2.10558 3.01831 21.8374
674 2 2.2208 5.07647 5.67686 21.939
678 1 -1.1104 0.739503 7.35864 26.1203
680 1 -1.1104 0.677403 4.33523 23.4459
685 1 -1.1104 1.0032 4.41141 26.329
689 1 -1.1104 3.52298 7.25388 23.2548
690 2 2.2208 2.09684 5.83326 24.7617
692 1 -1.1104 3.51242 7.35879 25.9505
694 1 -1.1104 3.52539 4.46402 23.1058
696 1 -1.1104 3.6556 4.30047 26.0246
676 1 -1.1104 0.857286 7.08612 23.2813
617 1 -1.1104 6.42897 1.37155 26.0576
613 1 -1.1104 6.22375 1.56104 23.4236
677 1 -1.1104 6.29667 7.02361 23.2199
682 1 -1.1104 6.3735 4.40213 23.5103
687 1 -1.1104 6.38272 4.38347 26.2772
679 1 -1.1104 6.26212 7.01017 26.2588
522 1 -1.1104 12.125 7.39091 20.6469
539 1 -1.1104 9.0931 4.31342 20.6404
402 2 2.2208 13.5973 8.40521 27.743
373 2 2.2208 10.6251 14.489 13.7077
379 2 2.2208 7.90067 19.9532 27.7746
455 1 -1.1104 11.9895 1.76661 20.7277
647 1 -1.1104 11.8846 1.47293 23.5123
649 1 -1.1104 12.0043 1.71129 26.3146
652 2 2.2208 10.3678 2.89265 24.9081
655 1 -1.1104 9.09405 1.59536 23.6316
658 1 -1.1104 9.14128 1.3994 26.394
660 2 2.2208 7.68803 3.00065 21.9668
706 1 -1.1104 9.0485 4.3947 26.2236
708 1 -1.1104 9.14349 4.361 23.4049
712 2 2.2208 7.76503 5.67141 25.0126
713 2 2.2208 10.4922 5.76446 22.1423
715 1 -1.1104 11.992 7.13116 23.4126
716 1 -1.1104 11.8255 7.15929 26.3745
717 1 -1.1104 11.9181 4.18583 23.4032
720 1 -1.1104 11.9444 4.2098 26.0488
710 1 -1.1104 8.88706 7.22936 26.3473
722 1 -1.1104 9.28618 7.24288 23.5272
635 1 -1.1104 12.0916 18.4364 26.4152
746 1 -1.1104 3.63948 12.8361 26.3362
675 2 2.2208 5.19976 11.5526 22.0978
681 1 -1.1104 0.859983 9.98641 23.3075
684 2 2.2208 4.96834 8.71204 24.6614
686 1 -1.1104 0.822122 9.96244 26.1328
691 2 2.2208 2.227 11.29 24.7815
693 2 2.2208 2.36605 8.73336 21.8055
695 1 -1.1104 3.72629 10.0939 23.4123
697 1 -1.1104 3.71152 9.9854 26.1537
731 1 -1.1104 3.59218 12.6708 23.5037
735 1 -1.1104 0.808785 12.8562 26.3461
741 1 -1.1104 0.814751 12.6289 23.5681
683 1 -1.1104 6.56 10.1111 23.4679
730 1 -1.1104 6.41768 12.7565 26.2977
555 1 -1.1104 6.65007 12.9717 20.8432
739 1 -1.1104 6.57405 12.8795 23.623
701 1 -1.1104 9.40127 15.604 23.6964
597 1 -1.1104 9.48097 13.1128 20.6605
579 2 2.2208 13.3966 2.84194 16.5058
542 2 2.2208 13.3349 5.75341 19.1861
688 1 -1.1104 6.54439 9.98142 26.2859
398 2 2.2208 10.5666 5.77133 27.7303
673 1 -1.1104 9.21422 12.9531 26.2723
664 1 -1.1104 9.28828 12.7336 23.4895
634 1 -1.1104 12.313 12.6532 26.2609
705 1 -1.1104 9.4145 10.0905 26.1062
707 1 -1.1104 9.24265 10.2073 23.3752
709 2 2.2208 7.84796 8.81679 21.9612
711 2 2.2208 7.92066 11.3973 24.9761
714 2 2.2208 10.7011 11.4218 21.9621
718 1 -1.1104 12.0694 9.76364 23.3211
719 2 2.2208 10.7701 8.68934 24.8106
721 1 -1.1104 12.4482 9.81644 26.2429
608 1 -1.1104 12.2528 12.4687 23.7278
477 2 2.2208 13.3845 -2.90752 16.4722
672 2 2.2208 13.2798 0.0093707 24.9361
378 2 2.2208 10.6653 17.0303 27.5982
663 1 -1.1104 12.0444 15.5537 26.2273
736 1 -1.1104 6.61945 18.3941 23.6134
732 1 -1.1104 6.61625 15.7319 26.4295
738 2 2.2208 5.13789 14.1355 24.9893
727 2 2.2208 2.25478 13.9758 22.1351
750 2 2.2208 2.17572 19.9151 22.0034
749 1 -1.1104 3.66436 15.4085 23.1107
748 1 -1.1104 0.693715 15.6632 23.4671
745 1 -1.1104 3.72608 15.5298 26.246
729 1 -1.1104 3.45933 18.6182 23.4913
733 1 -1.1104 0.668527 18.3093 26.1024
734 1 -1.1104 0.867968 15.5817 26.3122
737 2 2.2208 5.20067 19.8784 24.9468
740 1 -1.1104 0.777641 18.4464 23.2937
742 2 2.2208 5.10127 16.8891 22.0412
743 1 -1.1104 3.55671 18.4937 26.1344
744 2 2.2208 2.23189 16.967 24.7714
698 1 -1.1104 9.23882 18.6156 26.0715
747 1 -1.1104 6.32047 15.4964 23.5175
667 2 2.2208 7.84644 17.183 25.0252
604 1 -1.1104 9.29016 15.9248 20.7748
665 1 -1.1104 9.13424 18.3151 23.3261
633 1 -1.1104 11.9765 18.4704 23.6228
638 2 2.2208 10.8213 14.0378 24.8507
395 2 2.2208 4.88964 11.4605 27.6992
641 2 2.2208 10.6128 20.0793 24.9437
389 2 2.2208 7.93223 2.92646 27.6019
699 2 2.2208 7.87271 14.4955 22.0525
700 2 2.2208 7.79074 19.8248 22.1682
670 1 -1.1104 6.37978 18.4822 26.3152
636 1 -1.1104 12.1018 15.4044 23.2318
394 2 2.2208 2.26327 8.5726 27.5515
374 2 2.2208 13.5312 14.1066 27.6194
369 2 2.2208 5.09253 19.8857 13.712
352 2 2.2208 5.05908 2.95649 13.6614
751 2 2.2208 5.10135 22.6339 5.24688
753 1 -1.1104 0.850024 24.1631 0.853446
754 1 -1.1104 0.991001 24.0196 3.92156
755 1 -1.1104 0.889188 21.3679 1.08595
757 2 2.2208 5.27933 25.4557 2.36984
758 1 -1.1104 0.781274 21.1352 3.82597
760 1 -1.1104 3.56107 24.1931 0.880877
761 2 2.2208 2.31626 22.6719 2.26017
763 1 -1.1104 3.78569 24.1022 3.78949
764 2 2.2208 2.24568 25.4143 5.15047
765 1 -1.1104 3.56236 21.3304 0.842003
767 1 -1.1104 3.68894 21.2471 3.52424
894 1 -1.1104 0.907791 21.1998 6.76841
898 1 -1.1104 3.69734 24.2086 6.62068
774 1 -1.1104 6.07616 21.5177 1.29516
768 1 -1.1104 3.71199 26.9391 3.62627
759 1 -1.1104 0.847007 26.8414 3.6512
756 1 -1.1104 0.650632 26.979 0.973304
895 1 -1.1104 1.02623 26.6951 6.77774
892 1 -1.1104 1.13707 23.8464 6.401
766 1 -1.1104 3.71174 27.0027 0.872344
899 1 -1.1104 3.44671 21.3365 6.43865
772 1 -1.1104 6.44358 24.2752 0.894694
897 1 -1.1104 6.53463 26.7052 6.59319
773 1 -1.1104 6.42543 24.1293 3.86924
900 1 -1.1104 3.65176 26.9662 6.43512
893 1 -1.1104 6.43386 23.9659 6.59594
777 1 -1.1104 6.57228 26.8711 3.79301
776 1 -1.1104 6.36256 21.1407 3.9506
778 2 2.2208 10.8581 22.7004 5.27518
780 1 -1.1104 12.0909 23.9548 0.989714
781 1 -1.1104 12.0633 24.1925 3.7381
782 1 -1.1104 12.0386 21.1857 0.776003
784 2 2.2208 10.7679 25.4776 2.34115
785 1 -1.1104 12.0947 21.4271 3.61597
787 1 -1.1104 9.04539 24.2407 0.936609
788 2 2.2208 7.71808 22.8297 2.40551
790 1 -1.1104 9.23746 24.2946 3.80541
791 2 2.2208 7.89985 25.5825 5.15265
792 1 -1.1104 9.18731 21.4746 0.967811
794 1 -1.1104 9.21421 21.5143 3.67223
793 1 -1.1104 9.56947 26.9175 0.689466
786 1 -1.1104 12.323 26.8118 4.01185
795 1 -1.1104 9.63048 26.9881 3.58931
926 1 -1.1104 12.2784 21.3869 6.5472
783 1 -1.1104 12.2653 26.8402 1.07507
929 1 -1.1104 9.20038 21.2223 6.56613
927 1 -1.1104 12.1347 26.9644 6.4872
1047 2 2.2208 8.15144 42.2702 10.7506
1103 2 2.2208 2.45291 39.5657 13.657
1110 2 2.2208 13.4318 28.3324 13.5803
775 1 -1.1104 6.79301 27.1489 0.961263
1055 1 -1.1104 12.1444 41.3851 12.2932
752 2 2.2208 5.17505 28.3647 5.13115
762 2 2.2208 2.2431 28.1343 2.45668
800 1 -1.1104 0.891546 29.9127 0.749763
803 1 -1.1104 0.923463 29.6332 3.58606
806 1 -1.1104 0.88225 32.8029 0.853767
807 2 2.2208 4.87654 31.1699 2.33056
809 1 -1.1104 0.910284 32.635 3.48613
811 1 -1.1104 3.69443 29.7893 0.983289
814 1 -1.1104 3.74671 29.8492 3.7641
816 2 2.2208 2.22596 31.1928 4.99726
818 1 -1.1104 3.84587 32.5692 0.752884
819 1 -1.1104 3.48471 32.7285 3.52704
953 1 -1.1104 1.01133 32.5021 6.51315
825 1 -1.1104 6.58118 32.2123 0.931871
824 1 -1.1104 6.45665 29.7517 3.68015
954 1 -1.1104 6.35512 32.5777 6.55214
823 1 -1.1104 6.63793 29.5606 0.686823
957 1 -1.1104 3.63546 32.3931 6.34837
810 1 -1.1104 6.13768 32.4353 3.87427
951 1 -1.1104 6.54438 29.7762 6.57365
955 1 -1.1104 3.7432 29.6898 6.58609
779 2 2.2208 10.6156 28.3272 5.12412
789 2 2.2208 7.95758 28.3218 2.39619
827 1 -1.1104 12.1522 29.8364 0.955982
829 1 -1.1104 12.0255 29.6984 3.611
831 1 -1.1104 12.0271 32.5357 0.908248
832 2 2.2208 10.5367 31.108 2.37393
834 1 -1.1104 11.9691 32.6353 3.63313
835 1 -1.1104 9.23464 29.6532 0.910328
838 1 -1.1104 9.15248 29.7706 3.68585
840 2 2.2208 7.70218 31.188 5.20018
842 1 -1.1104 9.05071 32.5223 1.06699
843 1 -1.1104 9.09808 32.4775 3.89253
985 1 -1.1104 11.9764 32.3741 6.2959
983 1 -1.1104 12.0524 29.6826 6.47351
988 1 -1.1104 9.06225 32.5683 6.68117
986 1 -1.1104 9.33324 29.8863 6.62405
1087 2 2.2208 5.03599 25.3733 13.5612
930 1 -1.1104 9.28553 27.0002 6.6513
1139 1 -1.1104 6.59509 46.588 12.257
799 2 2.2208 4.91938 33.7595 5.1814
801 1 -1.1104 1.06617 35.4105 0.62538
804 1 -1.1104 1.09339 35.4853 3.44703
808 2 2.2208 5.02583 36.928 2.0563
812 1 -1.1104 3.7634 35.3846 0.521579
813 2 2.2208 2.47636 34.0958 1.90419
815 1 -1.1104 3.80051 35.2849 3.5487
817 2 2.2208 2.29945 36.8011 5.00795
845 2 2.2208 5.16876 39.6612 4.99453
851 1 -1.1104 0.875839 38.2253 0.790682
856 1 -1.1104 1.03945 38.2874 3.60169
861 2 2.2208 2.25566 39.7467 2.07121
865 1 -1.1104 3.55343 38.3873 0.700712
867 1 -1.1104 3.71344 38.3597 3.50755
805 1 -1.1104 6.54345 35.2286 3.70301
853 1 -1.1104 6.50661 38.1915 0.626528
802 1 -1.1104 6.53996 35.4332 0.917428
956 1 -1.1104 3.85217 35.1707 6.6089
950 1 -1.1104 0.935569 35.4488 6.3997