LAMMPS (29 Oct 2020)
OMP_NUM_THREADS environment is not set. Defaulting to 1 thread. (../comm.cpp:94)
  using 1 OpenMP thread(s) per MPI task
OMP_NUM_THREADS environment is not set. Defaulting to 1 thread. (../comm.cpp:94)
  using 1 OpenMP thread(s) per MPI task
Reading data file ...
  orthogonal box = (-0.27717828 -3.4472206 -0.27717828) to (27.617178 331.52722 27.617178)
  2 by 13 by 2 MPI processor grid
  reading atoms ...
  18000 atoms
  reading velocities ...
  18000 velocities
Finding 1-2 1-3 1-4 neighbors ...
  special bond factors lj:    0.0      0.0      0.0     
  special bond factors coul:  0.0      0.0      0.0     
     0 = max # of 1-2 neighbors
     0 = max # of 1-3 neighbors
     0 = max # of 1-4 neighbors
     1 = max # of special neighbors
  special bonds CPU = 0.004 seconds
  read_data CPU = 0.073 seconds
45 atoms in group sphere
2 atoms in group oxygen
2 atoms in group thorium
43 atoms in group 1
45 atoms in group cluster
6000 atoms in group Th
12000 atoms in group O
15 atoms in group Th_group
30 atoms in group O_group
Setting atom values ...
  15 settings made for type/subset
15 atoms in group Xe
30 atoms in group delete
WARNING: Ignoring 'compress yes' for molecular system (../delete_atoms.cpp:125)
Deleted 30 atoms, new total = 17970
45 atoms in group sphere
2 atoms in group oxygen
2 atoms in group thorium
43 atoms in group 1
45 atoms in group cluster
5985 atoms in group Th
11970 atoms in group O
15 atoms in group Th_group
30 atoms in group O_group
Setting atom values ...
  15 settings made for type/subset
30 atoms in group Xe
30 atoms in group delete
WARNING: Ignoring 'compress yes' for molecular system (../delete_atoms.cpp:125)
Deleted 30 atoms, new total = 17940
45 atoms in group sphere
2 atoms in group oxygen
2 atoms in group thorium
43 atoms in group 1
45 atoms in group cluster
5970 atoms in group Th
11940 atoms in group O
15 atoms in group Th_group
30 atoms in group O_group
Setting atom values ...
  15 settings made for type/subset
45 atoms in group Xe
30 atoms in group delete
WARNING: Ignoring 'compress yes' for molecular system (../delete_atoms.cpp:125)
Deleted 30 atoms, new total = 17910
45 atoms in group sphere
2 atoms in group oxygen
2 atoms in group thorium
43 atoms in group 1
45 atoms in group cluster
5955 atoms in group Th
11910 atoms in group O
15 atoms in group Th_group
30 atoms in group O_group
Setting atom values ...
  15 settings made for type/subset
60 atoms in group Xe
30 atoms in group delete
WARNING: Ignoring 'compress yes' for molecular system (../delete_atoms.cpp:125)
Deleted 30 atoms, new total = 17880
45 atoms in group sphere
2 atoms in group oxygen
2 atoms in group thorium
43 atoms in group 1
45 atoms in group cluster
5940 atoms in group Th
11880 atoms in group O
15 atoms in group Th_group
30 atoms in group O_group
Setting atom values ...
  15 settings made for type/subset
75 atoms in group Xe
30 atoms in group delete
WARNING: Ignoring 'compress yes' for molecular system (../delete_atoms.cpp:125)
Deleted 30 atoms, new total = 17850
45 atoms in group sphere
2 atoms in group oxygen
2 atoms in group thorium
43 atoms in group 1
45 atoms in group cluster
5925 atoms in group Th
11850 atoms in group O
15 atoms in group Th_group
30 atoms in group O_group
Setting atom values ...
  15 settings made for type/subset
90 atoms in group Xe
30 atoms in group delete
WARNING: Ignoring 'compress yes' for molecular system (../delete_atoms.cpp:125)
Deleted 30 atoms, new total = 17820
45 atoms in group sphere
2 atoms in group oxygen
2 atoms in group thorium
43 atoms in group 1
45 atoms in group cluster
5910 atoms in group Th
11820 atoms in group O
15 atoms in group Th_group
30 atoms in group O_group
Setting atom values ...
  15 settings made for type/subset
105 atoms in group Xe
30 atoms in group delete
WARNING: Ignoring 'compress yes' for molecular system (../delete_atoms.cpp:125)
Deleted 30 atoms, new total = 17790
45 atoms in group sphere
2 atoms in group oxygen
2 atoms in group thorium
43 atoms in group 1
45 atoms in group cluster
5895 atoms in group Th
11790 atoms in group O
15 atoms in group Th_group
30 atoms in group O_group
Setting atom values ...
  15 settings made for type/subset
120 atoms in group Xe
30 atoms in group delete
WARNING: Ignoring 'compress yes' for molecular system (../delete_atoms.cpp:125)
Deleted 30 atoms, new total = 17760
Setting atom values ...
  11760 settings made for charge
Setting atom values ...
  5880 settings made for charge
Setting atom values ...
  120 settings made for charge
WARNING: 10 of 1000 force values in table Kr-Kr are inconsistent with -dE/dr.
  Should only be flagged at inflection points (../pair_table.cpp:461)
WARNING: 1 of 1000 force values in table Kr-O are inconsistent with -dE/dr.
  Should only be flagged at inflection points (../pair_table.cpp:461)
WARNING: 1 of 1000 force values in table Kr-Th are inconsistent with -dE/dr.
  Should only be flagged at inflection points (../pair_table.cpp:461)
PPPM initialization ...
  using 12-bit tables for long-range coulomb (../kspace.cpp:328)
  G vector (1/distance) = 0.29911239
  grid = 40 240 40
  stencil order = 5
  estimated absolute RMS force accuracy = 0.00015328544
  estimated relative force accuracy = 1.0645085e-05
  using single precision MKL FFT
  3d grid and FFT values/proc = 18225 7600
Neighbor list info ...
  update every 1 steps, delay 0 steps, check yes
  max neighbors/atom: 2000, page size: 100000
  master list distance cutoff = 13
  ghost atom cutoff = 13
  binsize = 6.5, bins = 5 52 5
  3 neighbor lists, perpetual/occasional/extra = 3 0 0
  (1) pair coul/long, perpetual
      attributes: half, newton on
      pair build: half/bin/newton
      stencil: half/bin/3d/newton
      bin: standard
  (2) pair eam/alloy, perpetual, skip from (1)
      attributes: half, newton on
      pair build: skip
      stencil: none
      bin: none
  (3) pair table, perpetual, skip from (1)
      attributes: half, newton on
      pair build: skip
      stencil: none
      bin: none
Setting up cg style minimization ...
  Unit style    : metal
  Current step  : 0
WARNING: Energy due to 3 extra global DOFs will be included in minimizer energies
Per MPI rank memory allocation (min/avg/max) = 10.36 | 10.98 | 11.16 Mbytes
Step Temp E_pair E_mol TotEng Press Volume 
       0            0    -231413.7            0    -231413.7    1713.9926    260641.98 
     238            0   -231783.04            0   -231783.04   -26.510439     261170.1 
Loop time of 4.51474 on 52 procs for 238 steps with 17760 atoms

99.5% CPU use with 52 MPI tasks x 1 OpenMP threads

Minimization stats:
  Stopping criterion = linesearch alpha is zero
  Energy initial, next-to-last, final = 
     -231413.699146262   -231783.03581551   -231783.03581551
  Force two-norm initial, final = 559.98581 12.593318
  Force max component initial, final = 387.50469 10.002375
  Final line search alpha, max atom move = 6.1128463e-11 6.1142983e-10
  Iterations, force evaluations = 238 411

MPI task timing breakdown:
Section |  min time  |  avg time  |  max time  |%varavg| %total
---------------------------------------------------------------
Pair    | 2.5667     | 2.7269     | 2.9294     |   5.1 | 60.40
Bond    | 3.6266e-05 | 5.656e-05  | 9.6107e-05 |   0.0 |  0.00
Kspace  | 0.65441    | 0.85644    | 1.0168     |   9.1 | 18.97
Neigh   | 0          | 0          | 0          |   0.0 |  0.00
Comm    | 0.064699   | 0.068004   | 0.070744   |   0.6 |  1.51
Output  | 0          | 0          | 0          |   0.0 |  0.00
Modify  | 0          | 0          | 0          |   0.0 |  0.00
Other   |            | 0.8633     |            |       | 19.12

Nlocal:        341.538 ave         404 max         290 min
Histogram: 5 5 6 7 5 9 3 8 2 2
Nghost:        5580.27 ave        5778 max        5430 min
Histogram: 3 10 8 3 9 6 5 1 4 3
Neighs:       108750.0 ave      130253 max       91446 min
Histogram: 6 7 5 5 5 10 4 4 5 1

Total # of neighbors = 5655000
Ave neighs/atom = 318.41216
Ave special neighs/atom = 0.0000000
Neighbor list builds = 0
Dangerous builds = 0
Resetting atom IDs ...
PPPM initialization ...
  using 12-bit tables for long-range coulomb (../kspace.cpp:328)
  G vector (1/distance) = 0.29908058
  grid = 40 240 40
  stencil order = 5
  estimated absolute RMS force accuracy = 0.00015351357
  estimated relative force accuracy = 1.0660928e-05
  using single precision MKL FFT
  3d grid and FFT values/proc = 18225 7600
Neighbor list info ...
  update every 1 steps, delay 0 steps, check yes
  max neighbors/atom: 2000, page size: 100000
  master list distance cutoff = 13
  ghost atom cutoff = 13
  binsize = 6.5, bins = 5 52 5
  3 neighbor lists, perpetual/occasional/extra = 3 0 0
  (1) pair coul/long, perpetual
      attributes: half, newton on
      pair build: half/bin/newton
      stencil: half/bin/3d/newton
      bin: standard
  (2) pair eam/alloy, perpetual, skip from (1)
      attributes: half, newton on
      pair build: skip
      stencil: none
      bin: none
  (3) pair table, perpetual, skip from (1)
      attributes: half, newton on
      pair build: skip
      stencil: none
      bin: none
Finding 1-2 1-3 1-4 neighbors ...
  special bond factors lj:    0.0      0.0      0.0     
  special bond factors coul:  0.0      0.0      0.0     
     0 = max # of 1-2 neighbors
     0 = max # of 1-3 neighbors
     0 = max # of 1-4 neighbors
     1 = max # of special neighbors
  special bonds CPU = 0.001 seconds
PPPM initialization ...
  using 12-bit tables for long-range coulomb (../kspace.cpp:328)
  G vector (1/distance) = 0.29908058
  grid = 40 240 40
  stencil order = 5
  estimated absolute RMS force accuracy = 0.00015351357
  estimated relative force accuracy = 1.0660928e-05
  using single precision MKL FFT
  3d grid and FFT values/proc = 18225 7600
Neighbor list info ...
  update every 1 steps, delay 0 steps, check yes
  max neighbors/atom: 2000, page size: 100000
  master list distance cutoff = 13
  ghost atom cutoff = 13
  binsize = 6.5, bins = 5 52 5
  3 neighbor lists, perpetual/occasional/extra = 3 0 0
  (1) pair coul/long, perpetual
      attributes: half, newton on
      pair build: half/bin/newton
      stencil: half/bin/3d/newton
      bin: standard
  (2) pair eam/alloy, perpetual, skip from (1)
      attributes: half, newton on
      pair build: skip
      stencil: none
      bin: none
  (3) pair table, perpetual, skip from (1)
      attributes: half, newton on
      pair build: skip
      stencil: none
      bin: none
Setting up Verlet run ...
  Unit style    : metal
  Current step  : 238
  Time step     : 0.001
Per MPI rank memory allocation (min/avg/max) = 9.232 | 9.902 | 10.03 Mbytes
Step Dt Time Atoms Temp PotEng KinEng Press Volume 
     238        0.001            0    17760         1200   -231783.04    2754.6371    11239.166     261170.1 
   10000        0.001        9.762    17760    1212.9195   -228864.23    2784.2941   -298.94833    270617.12 
   20000        0.001       19.762    17760    1190.0677   -228868.23    2731.8372    478.15854    270417.94 
   30000        0.001       29.762    17760    1210.3443    -228849.6    2778.3828   -93.642989       270499 
   40000        0.001       39.762    17760    1212.3689   -228854.36    2783.0304    513.58053    270438.02 
   50000        0.001       49.762    17760    1199.9193   -228871.74    2754.4519    280.95437    270464.38 
   60000        0.001       59.762    17760     1194.422   -228874.34    2741.8327     2137.902    270113.94 
   70000        0.001       69.762    17760    1195.8053   -228872.72    2745.0079    428.54495    270246.02 
   80000        0.001       79.762    17760    1205.1189   -228874.95    2766.3878    1091.3235    270257.14 
   90000        0.001       89.762    17760    1199.7732   -228886.82    2754.1164    584.48309    270304.42 
  100000        0.001       99.762    17760    1194.5527   -228872.58    2742.1327   -857.76036    270646.52 
  100238        0.001          100    17760    1199.1114   -228886.55    2752.5972   -1157.3148    270713.18 
Loop time of 824.281 on 52 procs for 100000 steps with 17760 atoms

Performance: 10.482 ns/day, 2.290 hours/ns, 121.318 timesteps/s
99.8% CPU use with 52 MPI tasks x 1 OpenMP threads

MPI task timing breakdown:
Section |  min time  |  avg time  |  max time  |%varavg| %total
---------------------------------------------------------------
Pair    | 514.18     | 523.9      | 543.88     |  28.2 | 63.56
Bond    | 0.010096   | 0.015715   | 0.021817   |   2.4 |  0.00
Kspace  | 150.65     | 171.12     | 181.13     |  50.2 | 20.76
Neigh   | 7.8191     | 8.2026     | 8.6341     |   6.8 |  1.00
Comm    | 16.364     | 16.658     | 17.08      |   4.8 |  2.02
Output  | 0.054074   | 0.054117   | 0.056005   |   0.1 |  0.01
Modify  | 91.905     | 96.307     | 101.1      |  22.8 | 11.68
Other   |            | 8.02       |            |       |  0.97

Nlocal:        341.538 ave         365 max         321 min
Histogram: 1 2 10 8 8 10 8 1 3 1
Nghost:        5430.71 ave        5551 max        5280 min
Histogram: 1 5 3 2 5 16 8 3 2 7
Neighs:       104950.0 ave      112590 max       94811 min
Histogram: 1 2 0 7 9 13 7 5 4 4

Total # of neighbors = 5457389
Ave neighs/atom = 307.28542
Ave special neighs/atom = 0.0000000
Neighbor list builds = 2678
Dangerous builds = 0
WARNING: Shell command 'mkdir' failed with error 'File exists' (../input.cpp:1197)
System init for write_data ...
PPPM initialization ...
  using 12-bit tables for long-range coulomb (../kspace.cpp:328)
  G vector (1/distance) = 0.29841371
  grid = 40 240 40
  stencil order = 5
  estimated absolute RMS force accuracy = 0.00015891173
  estimated relative force accuracy = 1.1035809e-05
  using single precision MKL FFT
  3d grid and FFT values/proc = 18225 7600
Neighbor list info ...
  update every 1 steps, delay 0 steps, check yes
  max neighbors/atom: 2000, page size: 100000
  master list distance cutoff = 13
  ghost atom cutoff = 13
  binsize = 6.5, bins = 5 53 5
  3 neighbor lists, perpetual/occasional/extra = 3 0 0
  (1) pair coul/long, perpetual
      attributes: half, newton on
      pair build: half/bin/newton
      stencil: half/bin/3d/newton
      bin: standard
  (2) pair eam/alloy, perpetual, skip from (1)
      attributes: half, newton on
      pair build: skip
      stencil: none
      bin: none
  (3) pair table, perpetual, skip from (1)
      attributes: half, newton on
      pair build: skip
      stencil: none
      bin: none
Total wall time: 0:13:49
