ITEM: TIMESTEP
100000
ITEM: NUMBER OF ATOMS
17760
ITEM: BOX BOUNDS pp pp pp
-3.7350860621548687e-01 2.7713508606215250e+01
-4.4914510058629054e+00 3.3257145100586456e+02
-3.6628184868063984e-01 2.7706281848680973e+01
ITEM: ATOMS id type q x y z
1 2 2.2208 5.12483 0.892566 5.21412
2 1 -1.1104 1.12694 -3.28708 1.16923
3 1 -1.1104 1.15058 2.40058 1.05414
6 1 -1.1104 0.993791 -3.16033 3.82514
7 1 -1.1104 1.06232 2.35418 3.77119
10 1 -1.1104 1.00742 -0.571901 1.0917
12 2 2.2208 5.21753 -1.95966 2.4274
13 2 2.2208 5.224 3.83203 2.37892
14 1 -1.1104 1.04051 -0.398411 3.94358
16 1 -1.1104 3.86642 -3.42389 1.12381
17 1 -1.1104 3.88937 2.40321 1.02835
18 2 2.2208 2.53397 1.03334 2.3963
19 1 -1.1104 3.71714 -3.35409 3.96622
20 1 -1.1104 3.78689 2.35517 3.96913
21 2 2.2208 2.43269 -1.79635 5.17039
23 1 -1.1104 3.86565 -0.528044 0.996417
24 1 -1.1104 3.83072 -0.380765 3.75389
22 2 2.2208 2.47663 3.90124 5.18594
4 1 -1.1104 6.62294 -3.28029 1.06818
11 1 -1.1104 6.67204 -0.429611 1.06395
168 1 -1.1104 6.59514 -3.17167 6.72316
173 1 -1.1104 3.62948 2.41572 6.61988
174 1 -1.1104 3.68127 -0.358589 6.54472
9240 2 2.2208 -0.323119 20.615 8.04475
342 2 2.2208 10.9003 6.65678 -0.39179
9228 2 2.2208 -0.408813 12.2527 5.2646
9254 2 2.2208 13.6554 3.7563 -0.352241
8918 2 2.2208 13.6381 3.85406 5.24895
8 1 -1.1104 6.6194 -3.25891 3.88238
9 1 -1.1104 6.58725 2.3749 3.92549
15 1 -1.1104 6.53157 -0.482683 3.78403
171 1 -1.1104 6.4607 -0.486143 6.56865
5 1 -1.1104 6.62374 2.41167 1.16214
31 2 2.2208 10.7954 0.991351 5.23556
32 1 -1.1104 12.1795 -3.10513 1.00462
33 1 -1.1104 12.1611 2.30276 1.1079
34 1 -1.1104 12.1919 -3.17327 3.82013
35 1 -1.1104 12.1644 2.45898 3.86917
36 1 -1.1104 12.2961 -0.407037 1.09393
37 2 2.2208 10.778 -1.80727 2.47441
39 1 -1.1104 12.203 -0.347988 3.88995
40 1 -1.1104 9.42747 -3.35792 0.980785
41 1 -1.1104 9.41241 2.45076 1.07558
42 2 2.2208 7.94312 0.972763 2.48677
43 1 -1.1104 9.24957 -3.14306 3.79837
44 1 -1.1104 9.46712 2.35307 3.84382
45 2 2.2208 7.92251 -1.79832 5.24608
47 1 -1.1104 9.47974 -0.50609 1.25892
48 1 -1.1104 9.32843 -0.403892 3.96416
38 2 2.2208 10.7493 3.82973 2.4384
46 2 2.2208 7.97436 3.78595 5.31973
206 1 -1.1104 12.3959 2.39417 6.60309
208 1 -1.1104 9.52791 -3.20775 6.67355
209 1 -1.1104 9.38386 2.40408 6.75534
205 1 -1.1104 12.288 -3.27875 6.48801
210 1 -1.1104 9.34751 -0.388293 6.69106
341 2 2.2208 8.07089 9.47148 -0.386658
9227 2 2.2208 -0.372604 9.33552 2.48732
333 2 2.2208 5.17013 0.962902 -0.384986
319 2 2.2208 10.8565 -1.84551 13.6637
54 2 2.2208 5.25382 6.70382 5.23798
55 2 2.2208 5.12397 12.2082 5.40753
56 1 -1.1104 1.0851 8.01723 1.07542
58 1 -1.1104 0.884999 8.01978 3.95249
60 1 -1.1104 0.979065 5.26774 1.03804
61 1 -1.1104 0.934282 10.8179 1.24079
66 2 2.2208 5.25074 9.30606 2.5345
67 1 -1.1104 1.06399 5.17517 3.95583
68 1 -1.1104 1.08244 11.0018 3.96439
71 1 -1.1104 3.87825 7.84932 1.0575
72 2 2.2208 2.45355 6.6179 2.40784
73 2 2.2208 2.56433 12.267 2.56828
74 1 -1.1104 3.72124 8.02251 3.8021
75 2 2.2208 2.45432 9.38568 5.33098
76 1 -1.1104 3.79343 5.13681 0.90994
77 1 -1.1104 3.70042 10.7492 1.07556
79 1 -1.1104 3.83133 5.20036 3.67139
80 1 -1.1104 3.96208 10.7815 3.86092
238 1 -1.1104 3.86386 8.09411 6.53112
234 1 -1.1104 1.01188 8.034 6.83958
239 1 -1.1104 3.89077 5.25574 6.52101
336 2 2.2208 10.7794 1.01072 -0.380389
63 1 -1.1104 6.58755 5.3968 1.10865
64 1 -1.1104 6.79274 10.8402 1.04229
49 1 -1.1104 12.3765 19.2426 9.50172
78 1 -1.1104 3.82866 10.7812 6.7758
26 1 -1.1104 12.1334 13.5825 12.3727
57 1 -1.1104 6.73615 7.9595 0.944947
59 1 -1.1104 6.55005 7.88841 3.88196
65 1 -1.1104 6.64575 10.9078 6.8145
235 1 -1.1104 6.74825 8.15847 6.59265
69 1 -1.1104 6.58597 5.15755 3.81063
70 1 -1.1104 6.60567 10.6908 4.1137
84 2 2.2208 10.8615 6.67014 5.25295
85 2 2.2208 10.9361 12.1446 5.21162
86 1 -1.1104 12.3173 7.99266 0.996246
87 1 -1.1104 12.202 8.07019 3.77447
88 1 -1.1104 12.2813 5.12926 1.09911
89 1 -1.1104 12.2052 10.79 1.04391
91 2 2.2208 10.8476 9.40568 2.49294
92 1 -1.1104 12.1087 5.1906 3.87139
93 1 -1.1104 12.2817 10.8658 3.96691
94 1 -1.1104 9.39829 8.00927 1.16535
95 2 2.2208 8.07943 6.64888 2.46197
96 2 2.2208 7.98539 12.1764 2.50465
97 1 -1.1104 9.36771 8.07388 3.94359
98 2 2.2208 8.0191 9.53351 5.26355
99 1 -1.1104 9.48456 5.20831 1.00234
100 1 -1.1104 9.40149 10.8608 1.03612
102 1 -1.1104 9.38161 5.16744 3.76793
103 1 -1.1104 9.45734 10.7843 3.67164
266 1 -1.1104 12.3154 5.1694 6.80281
90 1 -1.1104 12.3475 10.7009 6.74181
101 1 -1.1104 9.47692 10.9272 6.7672
267 1 -1.1104 9.45795 8.07909 6.6957
269 1 -1.1104 9.3849 5.21293 6.54996
265 1 -1.1104 12.2643 8.02417 6.71175
199 1 -1.1104 9.49476 16.2839 12.3765
105 2 2.2208 8.21319 17.794 8.17206
9217 2 2.2208 -0.423399 -1.84319 2.53101
313 2 2.2208 2.60962 20.6972 -0.531699
106 2 2.2208 5.22848 17.856 5.35314
107 1 -1.1104 1.03405 13.7268 1.10148
109 1 -1.1104 1.05047 19.3596 1.07877
113 1 -1.1104 0.939169 13.8335 3.93383
114 1 -1.1104 1.0035 19.1853 3.87699
116 1 -1.1104 0.995839 16.5118 1.27317
119 2 2.2208 5.27113 15.0366 2.54429
120 2 2.2208 5.31139 20.7778 2.46335
121 1 -1.1104 0.98326 16.4798 3.86949
123 1 -1.1104 3.91892 13.634 1.2213
125 1 -1.1104 3.80719 19.2086 0.847339
127 2 2.2208 2.29553 17.8438 2.43314
128 1 -1.1104 3.7559 13.746 3.9475
129 1 -1.1104 3.9139 19.4046 3.71997
130 2 2.2208 2.47241 15.1241 5.21998
131 2 2.2208 2.4785 20.5693 5.22763
132 1 -1.1104 3.87788 16.4727 1.10639
134 1 -1.1104 3.77101 16.6791 3.93117
124 1 -1.1104 3.78228 13.5572 6.70268
139 1 -1.1104 6.63575 19.0583 4.13276
140 1 -1.1104 6.69679 16.4801 1.06237
112 1 -1.1104 6.64305 19.1492 6.78813
302 1 -1.1104 0.985452 19.2105 6.72073
122 1 -1.1104 6.81656 16.2267 3.82777
117 1 -1.1104 1.08554 16.3739 6.75802
9235 2 2.2208 -0.434505 3.99786 8.07069
9140 2 2.2208 -0.316185 12.2199 10.9749
138 1 -1.1104 6.5563 19.3441 1.17335
115 1 -1.1104 6.327 13.5025 3.75295
110 1 -1.1104 6.70459 13.611 1.17692
141 2 2.2208 10.956 17.8951 5.34296
142 1 -1.1104 12.1912 13.693 1.10551
144 1 -1.1104 12.22 19.414 1.11309
146 1 -1.1104 12.2157 13.5448 3.85465
147 1 -1.1104 12.3433 19.2039 3.89797
148 1 -1.1104 12.3904 16.5754 1.15352
150 2 2.2208 10.9027 15.1109 2.37272
151 2 2.2208 10.7778 20.5862 2.60944
152 1 -1.1104 12.4791 16.4662 3.79867
153 1 -1.1104 9.44113 13.7191 0.785208
155 1 -1.1104 9.35926 19.1454 1.20361
157 2 2.2208 8.08748 17.8708 2.51453
158 1 -1.1104 9.26409 13.5272 3.91196
159 1 -1.1104 9.51231 19.3066 4.06452
160 2 2.2208 8.20749 15.0367 5.32326
161 2 2.2208 8.12959 20.5268 5.36259
162 1 -1.1104 9.4716 16.4024 1.23928
164 1 -1.1104 9.7453 16.4528 3.9573
156 1 -1.1104 9.50077 19.2474 6.86222
149 1 -1.1104 12.2418 16.4498 6.73378
163 1 -1.1104 9.52036 16.4935 6.76672
154 1 -1.1104 9.49105 13.5999 6.64563
118 1 -1.1104 6.69499 16.4611 6.67419
145 1 -1.1104 12.2835 19.2117 6.66067
25 2 2.2208 10.9765 17.7817 10.9475
339 2 2.2208 5.31329 6.59241 -0.404885
81 2 2.2208 10.953 20.6249 8.11667
166 1 -1.1104 1.00087 -3.19344 6.58318
172 1 -1.1104 3.7725 -3.10694 6.60495
167 1 -1.1104 0.98519 2.50133 6.63654
143 1 -1.1104 12.3423 13.4711 6.77101
170 1 -1.1104 0.898448 -0.280521 6.6104
175 2 2.2208 5.20244 1.06458 10.7714
176 1 -1.1104 1.1353 -3.07693 12.3277
177 1 -1.1104 1.02709 2.39647 12.2709
180 1 -1.1104 1.00522 -3.06977 9.55168
181 1 -1.1104 1.0813 2.52823 9.49943
184 1 -1.1104 1.18851 -0.240904 11.9527
186 2 2.2208 5.30291 -1.7355 7.99645
188 1 -1.1104 1.04067 -0.455854 9.36103
190 1 -1.1104 3.93091 -3.17967 12.406
191 1 -1.1104 3.94631 2.45033 12.3864
192 2 2.2208 2.33906 1.08436 7.97864
193 1 -1.1104 3.89008 -3.19337 9.54811
194 1 -1.1104 3.82729 2.26455 9.38191
195 2 2.2208 2.5849 -1.74506 10.847
197 1 -1.1104 3.92099 -0.355495 12.1294
198 1 -1.1104 3.97303 -0.460191 9.38066
196 2 2.2208 2.32258 3.86537 10.9935
187 2 2.2208 5.27815 3.94667 8.05719
9231 2 2.2208 -0.402543 15.004 2.50253
165 2 2.2208 8.13412 20.6556 10.9201
340 2 2.2208 10.7835 12.157 -0.367061
297 1 -1.1104 6.69697 13.5886 12.4943
9226 2 2.2208 -0.477577 6.54448 5.25661
288 1 -1.1104 6.591 19.2087 9.41779
169 1 -1.1104 6.6029 2.4093 6.77348
135 1 -1.1104 9.43768 13.6041 9.55175
9233 2 2.2208 -0.33562 17.7839 5.26497
178 1 -1.1104 6.64224 -3.19113 12.3617
207 1 -1.1104 12.229 -0.429846 6.60563
182 1 -1.1104 6.72959 -3.1704 9.42008
185 1 -1.1104 6.44723 -0.215922 12.3118
183 1 -1.1104 6.79034 2.35354 9.53917
179 1 -1.1104 6.86156 2.52551 12.206
189 1 -1.1104 6.6807 -0.375939 9.4293
211 2 2.2208 10.8301 1.07076 10.9628
212 1 -1.1104 12.1382 -3.31398 12.1382
213 1 -1.1104 12.2512 2.43869 12.4237
214 1 -1.1104 12.3243 -3.33395 9.39915
215 1 -1.1104 12.3663 2.43054 9.5666
216 1 -1.1104 12.0477 -0.515179 12.2912
217 2 2.2208 10.8455 -1.85646 8.01364
218 2 2.2208 10.8316 3.8826 8.03983
219 1 -1.1104 12.3077 -0.436245 9.29223
220 1 -1.1104 9.30732 -3.23749 12.2202
221 1 -1.1104 9.52918 2.46839 12.4293
222 2 2.2208 7.96426 1.0656 8.06128
223 1 -1.1104 9.52806 -3.29671 9.45669
224 1 -1.1104 9.67911 2.42473 9.53887
225 2 2.2208 8.0338 -1.74848 10.8048
227 1 -1.1104 9.31261 -0.384167 12.3133
228 1 -1.1104 9.39419 -0.405993 9.52611
226 2 2.2208 8.30022 3.80991 10.9717
200 1 -1.1104 9.58137 16.3691 9.58216
104 1 -1.1104 9.51612 19.03 12.4337
50 1 -1.1104 12.1894 16.4366 12.3028
30 1 -1.1104 12.3701 13.606 9.55889
62 1 -1.1104 1.05611 10.8409 6.66571
82 1 -1.1104 12.5092 16.4694 9.46188
27 1 -1.1104 12.4561 19.1283 12.3151
290 1 -1.1104 6.66362 13.7246 9.65447
9220 2 2.2208 -0.405027 0.995541 5.17551
236 1 -1.1104 1.02953 5.22216 6.59904
240 2 2.2208 5.29175 6.60174 10.8771
241 2 2.2208 5.38247 12.3288 11.0268
242 1 -1.1104 1.12721 7.95348 12.2591
244 1 -1.1104 1.04684 8.04667 9.54957
246 1 -1.1104 0.921129 5.08482 12.3859
247 1 -1.1104 1.0666 10.7631 12.3484
250 2 2.2208 5.29855 9.45227 8.05005
251 1 -1.1104 1.1705 5.26618 9.39824
252 1 -1.1104 1.17851 10.6993 9.50419
255 1 -1.1104 3.79751 7.94303 12.2653
256 2 2.2208 2.39611 6.64034 8.15613
257 2 2.2208 2.52708 12.1188 8.1646
258 1 -1.1104 3.80832 8.08928 9.38317
259 2 2.2208 2.36164 9.43957 10.896
260 1 -1.1104 3.89843 5.21957 12.1831
261 1 -1.1104 3.84194 10.7413 12.4785
262 1 -1.1104 3.90917 5.06546 9.42949
263 1 -1.1104 3.74306 10.8821 9.61409
254 1 -1.1104 6.53319 10.7188 9.69673
243 1 -1.1104 6.63864 8.00847 12.4925
136 1 -1.1104 9.53192 19.1185 9.70603
245 1 -1.1104 6.63202 8.07747 9.54061
248 1 -1.1104 6.73794 5.24803 12.218
249 1 -1.1104 6.79568 10.8182 12.3462
237 1 -1.1104 6.69256 5.31504 6.76371
253 1 -1.1104 6.79249 5.20322 9.39296
264 1 -1.1104 9.36524 10.8251 9.60579
268 1 -1.1104 9.48935 5.18631 9.34116
270 1 -1.1104 9.56079 10.8112 12.2943
271 1 -1.1104 9.51191 5.2942 12.2643
272 2 2.2208 8.07645 9.41075 10.9265
273 1 -1.1104 9.27435 8.01369 9.45917
274 2 2.2208 8.09894 12.3007 8.21412
275 2 2.2208 7.84521 6.77766 8.04603
276 2 2.2208 10.7705 6.64041 11.0344
277 2 2.2208 10.8226 12.2554 11.0197
278 1 -1.1104 12.2273 7.98822 12.2659
279 1 -1.1104 12.2378 7.91167 9.47672
280 1 -1.1104 12.2822 5.27344 12.4874
281 1 -1.1104 12.4094 10.7661 12.5224
282 2 2.2208 10.9612 9.37123 8.12886
283 1 -1.1104 12.2004 5.18587 9.67655
284 1 -1.1104 12.274 10.972 9.57953
285 1 -1.1104 9.45481 8.06096 12.4633
317 2 2.2208 7.98949 20.7092 -0.302574
53 2 2.2208 11.0257 14.9756 8.11767
83 1 -1.1104 9.42495 13.6317 12.278
289 1 -1.1104 6.67321 16.421 9.53577
137 2 2.2208 8.05891 15.0999 10.957
126 1 -1.1104 3.81434 19.1163 6.57227
296 1 -1.1104 6.69787 19.2962 12.225
133 1 -1.1104 3.87047 16.3648 6.69673
108 1 -1.1104 1.04784 13.5322 6.71303
111 1 -1.1104 6.70777 13.7472 6.69541
307 1 -1.1104 1.16818 16.3955 12.366
305 1 -1.1104 3.94576 13.5248 9.50511
229 2 2.2208 2.53844 14.9174 10.9287
230 2 2.2208 2.4504 20.6399 10.741
233 1 -1.1104 4.01718 16.4289 12.2766
286 1 -1.1104 3.92136 19.1411 12.1821
287 1 -1.1104 3.83116 13.5372 12.2535
291 1 -1.1104 1.11468 19.1217 9.47719
292 1 -1.1104 0.9512 16.2687 9.57085
293 2 2.2208 5.29279 20.5777 8.04597
294 1 -1.1104 1.06008 13.5791 9.59371
295 2 2.2208 5.31389 15.0838 8.07462
298 1 -1.1104 1.15377 19.1721 12.2454
299 1 -1.1104 1.09492 13.6303 12.3828
300 2 2.2208 5.34912 17.827 10.8848
301 1 -1.1104 3.88171 19.3219 9.37591
303 2 2.2208 2.44383 17.8183 8.23986
304 1 -1.1104 3.90133 16.3551 9.58103
306 1 -1.1104 6.65783 16.3892 12.3321
9224 2 2.2208 13.6621 -1.84482 5.31471
9239 2 2.2208 -0.330242 17.6925 10.9884
308 2 2.2208 7.98761 15.0692 -0.379388
9236 2 2.2208 -0.353585 -1.69948 7.94436
9223 2 2.2208 13.6589 1.10562 2.48723
9130 2 2.2208 13.7907 12.205 7.97392
344 2 2.2208 5.2234 12.2088 -0.283111
335 2 2.2208 2.48227 3.74487 -0.431852
9234 2 2.2208 13.7678 17.8739 2.5975
9237 2 2.2208 13.7593 1.06451 7.95913
314 2 2.2208 2.42741 1.05671 13.667
321 2 2.2208 2.43714 6.63347 13.8144
334 2 2.2208 2.37164 -1.95459 -0.345471
9278 2 2.2208 -0.330237 20.608 13.6234
330 2 2.2208 10.817 20.6049 13.8445
343 2 2.2208 2.44558 9.40295 -0.284657
318 2 2.2208 8.03335 1.03723 13.6523
345 2 2.2208 5.19512 1.06665 16.5774
346 1 -1.1104 0.898043 -3.18723 17.7815
347 1 -1.1104 1.00659 2.32969 17.9577
350 1 -1.1104 0.847125 -3.10631 14.9695
352 1 -1.1104 0.975818 2.31776 15.086
358 1 -1.1104 1.0723 -0.226022 17.697
360 2 2.2208 5.26104 -1.78618 19.2825
362 1 -1.1104 0.967271 -0.382909 14.9774
366 1 -1.1104 3.77895 -3.19 17.8703
367 1 -1.1104 3.84185 2.42528 17.78
368 2 2.2208 2.34104 0.909499 19.2319
369 1 -1.1104 3.75056 -3.05538 15.2089
371 1 -1.1104 3.86179 2.48296 15.1372
373 2 2.2208 2.49371 -1.66802 16.5955
375 1 -1.1104 3.90513 -0.452722 17.9803
376 1 -1.1104 3.68238 -0.314439 15.091
374 2 2.2208 2.42445 3.84188 16.4923
361 2 2.2208 5.09139 3.88631 19.3242
377 1 -1.1104 3.70664 -0.470311 20.7453
372 1 -1.1104 3.74361 2.48366 20.5885
348 1 -1.1104 6.63598 -3.14197 17.8951
359 1 -1.1104 6.61415 -0.336015 17.998
354 1 -1.1104 6.69427 -3.16689 15.1176
363 1 -1.1104 0.859889 -0.347539 20.6024
365 1 -1.1104 6.51963 -0.358007 20.6062
578 2 2.2208 5.16326 -4.63357 22.0188
351 1 -1.1104 1.02301 -3.19976 20.4907
353 1 -1.1104 0.913926 2.31038 20.785
579 2 2.2208 2.39334 -4.659 24.8598
356 1 -1.1104 6.62913 2.53328 15.1026
364 1 -1.1104 6.51152 -0.319134 15.1082
349 1 -1.1104 6.69422 2.34082 17.8563
388 2 2.2208 10.8101 0.889685 16.4622
389 1 -1.1104 12.2948 -3.2324 17.8202
390 1 -1.1104 12.1847 2.30677 17.9036
391 1 -1.1104 12.3195 -3.22444 15.0749
393 1 -1.1104 12.2806 2.24276 15.1069
395 1 -1.1104 12.2134 -0.371463 17.6895
396 2 2.2208 10.9206 -1.77239 19.2178
398 1 -1.1104 12.2927 -0.597708 14.8691
400 1 -1.1104 9.43974 -3.29405 17.7868
401 1 -1.1104 9.46668 2.25498 17.8349
402 2 2.2208 7.99555 1.04108 19.3047
403 1 -1.1104 9.55833 -3.15122 15.0779
405 1 -1.1104 9.55572 2.47472 15.1698
407 2 2.2208 8.01183 -1.73836 16.5575
409 1 -1.1104 9.492 -0.569232 17.9111
410 1 -1.1104 9.35228 -0.37988 15.1024
408 2 2.2208 7.9965 3.79145 16.4189
397 2 2.2208 10.8433 3.79342 19.3623
357 1 -1.1104 6.59737 2.35215 20.7586
355 1 -1.1104 6.61256 -3.16279 20.6343
399 1 -1.1104 12.3588 -0.502267 20.5642
404 1 -1.1104 9.39232 -3.16173 20.6901
322 2 2.2208 5.29033 9.53161 13.7978
392 1 -1.1104 12.173 -3.20562 20.6486
406 1 -1.1104 9.49264 2.40478 20.6572
608 2 2.2208 8.02006 -4.614 24.8805
9324 2 2.2208 -0.516635 14.9865 24.8173
323 2 2.2208 2.47259 12.1993 13.7378
414 2 2.2208 7.97312 -4.61542 19.2699
421 2 2.2208 5.36018 6.68616 16.4551
422 2 2.2208 5.31416 12.2585 16.6715
423 1 -1.1104 1.05345 7.95273 18.0056
425 1 -1.1104 1.01552 7.96392 15.1538
429 1 -1.1104 0.982538 5.20369 17.9493
430 1 -1.1104 0.937361 10.8328 17.9613
433 2 2.2208 5.31042 9.40864 19.2791
434 1 -1.1104 1.08642 5.2254 15.1585
436 1 -1.1104 1.13541 10.7441 15.1771
442 1 -1.1104 3.86298 8.03276 17.9699
443 2 2.2208 2.43012 6.56612 19.3594
444 2 2.2208 2.37377 12.2918 19.3448
445 1 -1.1104 3.92804 7.98392 15.1078
447 2 2.2208 2.36928 9.53684 16.7881
448 1 -1.1104 3.83396 5.27789 17.9154
449 1 -1.1104 3.84083 10.77 18.0822
450 1 -1.1104 3.95858 5.30117 15.1278
452 1 -1.1104 3.95474 10.864 15.3312
437 1 -1.1104 0.965758 10.8792 20.876
426 1 -1.1104 1.03735 7.99325 20.8711
435 1 -1.1104 0.965489 5.10049 20.8653
446 1 -1.1104 3.8593 7.90181 20.6648
427 1 -1.1104 6.6679 8.1825 15.0669
453 1 -1.1104 3.85017 10.6994 20.9534
328 2 2.2208 5.38089 20.7333 13.5493
438 1 -1.1104 6.64188 5.43426 15.1023
431 1 -1.1104 6.61346 5.1966 17.9967
326 2 2.2208 8.20276 12.3054 13.8094
324 2 2.2208 8.04479 6.62461 13.7211
432 1 -1.1104 6.71637 10.7056 17.9646
424 1 -1.1104 6.73987 7.94262 17.9496
440 1 -1.1104 6.71316 11.0071 15.2397
457 2 2.2208 10.9605 6.59907 16.6691
458 2 2.2208 10.892 12.2364 16.5437
459 1 -1.1104 12.3789 7.95748 17.9744
460 1 -1.1104 12.3998 7.94195 15.2148
462 1 -1.1104 12.2513 5.02111 18.0042
463 1 -1.1104 12.2741 10.7226 17.9121
464 2 2.2208 10.9627 9.25143 19.3336
465 1 -1.1104 12.4649 5.1538 15.2736
467 1 -1.1104 12.2556 10.7239 15.2457
469 1 -1.1104 9.57415 8.04452 17.9817
470 2 2.2208 8.06171 6.4902 19.3491
471 2 2.2208 8.13878 12.1181 19.3677
472 1 -1.1104 9.50196 7.92325 15.1849
474 2 2.2208 8.25087 9.34796 16.5541
475 1 -1.1104 9.39216 5.05319 17.9699
476 1 -1.1104 9.61489 10.8944 18.0877
477 1 -1.1104 9.5285 5.32169 15.1875
479 1 -1.1104 9.54358 10.6822 15.1735
480 1 -1.1104 9.44553 10.6822 20.7574
478 1 -1.1104 9.44211 5.12745 20.681
325 2 2.2208 10.9497 9.27872 13.8346
439 1 -1.1104 6.59921 5.22576 20.6799
428 1 -1.1104 6.81869 8.08835 20.6125
607 2 2.2208 10.8198 -4.66962 22.0934
484 2 2.2208 5.23052 17.9479 16.6088
485 1 -1.1104 1.09825 13.6721 17.9496
486 1 -1.1104 1.02292 19.3552 17.9424
489 1 -1.1104 1.08572 13.5399 15.1213
491 1 -1.1104 1.12876 19.1317 15.1418
497 1 -1.1104 1.11884 16.5243 18.0783
499 2 2.2208 5.11352 15.0361 19.3553
500 2 2.2208 5.13291 20.7951 19.473
501 1 -1.1104 0.980571 16.4066 15.2061
505 1 -1.1104 3.8128 13.6174 18.1467
506 1 -1.1104 3.91615 19.1552 17.9621
507 2 2.2208 2.37795 17.9138 19.319
508 1 -1.1104 3.77287 13.75 15.3255
510 1 -1.1104 3.82991 19.3424 15.0225
512 2 2.2208 2.41957 15.1044 16.5697
513 2 2.2208 2.42278 20.5766 16.4758
514 1 -1.1104 3.84389 16.4049 17.8586
515 1 -1.1104 3.90946 16.4512 15.0563
509 1 -1.1104 3.77411 13.4807 20.8317
502 1 -1.1104 1.09269 16.4044 20.7528
492 1 -1.1104 1.02921 19.4308 20.7408
511 1 -1.1104 3.83921 19.2899 20.7394
9509 2 2.2208 -0.342657 17.8446 16.419
9466 2 2.2208 13.6465 15.0758 16.5965
611 1 -1.1104 9.61587 19.2707 23.5268
531 1 -1.1104 12.47 16.2755 20.7728
493 1 -1.1104 6.69407 13.6595 15.2091
503 1 -1.1104 6.69776 16.594 15.2024
488 1 -1.1104 6.71489 19.2463 17.8996
496 1 -1.1104 6.46958 19.2729 20.7096
504 1 -1.1104 6.68669 16.4371 20.7593
498 1 -1.1104 6.63053 16.3279 18.0147
487 1 -1.1104 6.76054 13.5271 17.9874
495 1 -1.1104 6.64621 19.324 15.1706
520 2 2.2208 10.8604 17.8054 16.6255
521 1 -1.1104 12.1429 13.4713 17.9251
522 1 -1.1104 12.2348 19.0394 18.1468
523 1 -1.1104 12.2898 13.6449 15.1076
525 1 -1.1104 12.3319 19.2619 15.201
527 1 -1.1104 12.1318 16.3231 18.0364
528 2 2.2208 10.7374 15.1312 19.4414
529 2 2.2208 11.0307 20.5641 19.455
530 1 -1.1104 12.3591 16.5323 15.2331
532 1 -1.1104 9.42996 13.6657 17.8594
533 1 -1.1104 9.53132 19.3671 17.9374
534 2 2.2208 7.98081 17.8223 19.3628
535 1 -1.1104 9.52216 13.5389 15.1715
537 1 -1.1104 9.40491 19.1523 15.1627
539 2 2.2208 8.07965 15.0411 16.6299
540 2 2.2208 8.01812 20.6875 16.5795
541 1 -1.1104 9.35085 16.611 17.9177
542 1 -1.1104 9.60632 16.3087 15.2012
524 1 -1.1104 12.3118 13.5385 20.6495
543 1 -1.1104 9.48924 16.546 20.6339
605 2 2.2208 10.9737 20.5963 25.0154
494 1 -1.1104 6.59137 13.674 20.6243
536 1 -1.1104 9.39641 13.6885 20.7811
575 1 -1.1104 12.4681 13.5368 23.6164
370 1 -1.1104 3.89324 -3.23287 20.7447
312 2 2.2208 5.27996 17.8861 27.7248
548 2 2.2208 5.10773 1.17938 21.9897
549 1 -1.1104 1.01404 -3.17087 23.5025
550 1 -1.1104 1.03 2.33171 23.5229
553 1 -1.1104 0.900319 -3.41178 26.2734
554 1 -1.1104 1.07009 2.35919 26.3208
557 1 -1.1104 1.0647 -0.452717 23.4392
559 2 2.2208 5.25899 -1.70573 24.8626
561 1 -1.1104 1.04604 -0.454127 26.3652
563 1 -1.1104 3.72775 -3.24529 23.4302
564 1 -1.1104 3.76961 2.2949 23.3392
565 2 2.2208 2.41242 0.868493 24.7915
566 1 -1.1104 3.74143 -3.19378 26.257
567 1 -1.1104 3.71405 2.27731 26.2483
568 2 2.2208 2.24982 -1.81115 22.0526
570 1 -1.1104 3.85178 -0.343968 23.3642
571 1 -1.1104 3.88486 -0.475502 26.1538
569 2 2.2208 2.21665 3.72482 22.11
560 2 2.2208 5.21782 3.71009 25.0145
551 1 -1.1104 6.55912 -3.07723 23.4143
9277 2 2.2208 -0.276722 15.0393 13.728
556 1 -1.1104 6.71655 2.36495 26.4333
9468 2 2.2208 13.7704 17.8655 19.3955
9439 2 2.2208 13.6273 -1.86652 16.4089
9437 2 2.2208 -0.438399 9.48468 19.462
538 1 -1.1104 9.45503 19.2423 20.8302
411 1 -1.1104 9.46622 -0.344081 20.6074
394 1 -1.1104 12.4468 2.32231 20.79
9369 2 2.2208 13.723 -1.79768 22.021
580 1 -1.1104 12.1478 13.7207 26.4121
603 1 -1.1104 9.46345 16.4375 23.6279
552 1 -1.1104 6.5784 2.35983 23.5853
558 1 -1.1104 6.63183 -0.349129 23.4254
562 1 -1.1104 6.5842 -0.342924 26.4194
555 1 -1.1104 6.47571 -3.21413 26.3289
584 2 2.2208 10.871 1.00331 21.9189
585 1 -1.1104 12.263 -3.18142 23.3546
586 1 -1.1104 12.3381 2.39499 23.5559
587 1 -1.1104 12.4615 -3.08987 26.0999
588 1 -1.1104 12.2499 2.35841 26.3142
589 1 -1.1104 12.1955 -0.355522 23.3327
590 2 2.2208 10.8244 -1.78204 24.809
592 1 -1.1104 12.2454 -0.187221 26.2715
593 1 -1.1104 9.37196 -3.16224 23.4868
594 1 -1.1104 9.40866 2.4783 23.4862
595 2 2.2208 8.06428 1.05516 24.8998
596 1 -1.1104 9.4103 -3.14313 26.3147
597 1 -1.1104 9.59315 2.28238 26.1453
598 2 2.2208 8.01906 -1.721 22.073
600 1 -1.1104 9.31272 -0.339691 23.4784
601 1 -1.1104 9.32532 -0.497463 26.4993
591 2 2.2208 10.9148 3.82373 24.9555
599 2 2.2208 8.1166 3.66467 22.0915
640 1 -1.1104 6.77565 19.3195 26.4602
9396 2 2.2208 13.7522 9.39189 16.5236
451 1 -1.1104 3.73761 5.14608 20.7661
613 2 2.2208 5.22389 6.49255 22.182
614 2 2.2208 5.24214 12.2239 22.1714
615 1 -1.1104 1.10851 7.8668 23.5755
617 1 -1.1104 0.994309 7.8724 26.4117
619 1 -1.1104 0.972616 5.21991 23.7117
620 1 -1.1104 1.04555 10.5527 23.589
623 2 2.2208 5.21318 9.43475 24.8869
624 1 -1.1104 1.00512 5.02202 26.3247
625 1 -1.1104 1.05461 10.7131 26.3901
628 1 -1.1104 3.81211 7.8778 23.5325
629 2 2.2208 2.44923 6.53689 24.9523
630 2 2.2208 2.44333 12.0489 24.9106
631 1 -1.1104 3.85747 8.00986 26.3462
632 2 2.2208 2.44979 9.32495 22.1025
633 1 -1.1104 3.84163 4.9787 23.4811
634 1 -1.1104 3.71988 10.6498 23.6712
635 1 -1.1104 4.06115 5.29363 26.3145
636 1 -1.1104 3.91664 10.6495 26.3805
482 1 -1.1104 6.59094 13.5818 23.5907
616 1 -1.1104 6.66631 7.99318 23.5105
621 1 -1.1104 6.68587 5.18004 23.6497
622 1 -1.1104 6.72661 10.818 23.5389
626 1 -1.1104 6.76032 5.22201 26.4604
416 1 -1.1104 6.70283 16.3433 23.5096
576 1 -1.1104 12.3907 19.0841 23.5999
315 2 2.2208 5.3075 3.86723 13.6334
327 2 2.2208 2.63088 17.856 13.6162
602 1 -1.1104 9.37889 16.4092 26.4936
441 1 -1.1104 6.73594 10.92 20.7394
466 1 -1.1104 12.2954 5.15093 20.7916
461 1 -1.1104 12.4246 7.97362 20.8143
610 1 -1.1104 9.58505 13.6756 23.4018
468 1 -1.1104 12.3175 10.7033 20.6687
473 1 -1.1104 9.60838 7.78837 20.7889
627 1 -1.1104 6.81524 10.7928 26.3717
618 1 -1.1104 6.69097 7.96155 26.3596
637 1 -1.1104 9.52151 8.08741 23.6274
638 1 -1.1104 12.3003 10.8081 26.4049
639 1 -1.1104 12.3145 5.29384 26.3267
644 1 -1.1104 9.45583 10.8338 26.2223
645 1 -1.1104 9.51816 5.26923 26.3933
646 1 -1.1104 9.50635 10.9629 23.5526
647 1 -1.1104 9.54386 5.19825 23.5396
648 2 2.2208 8.22728 9.31026 22.044
649 1 -1.1104 9.44978 8.03985 26.3993
650 2 2.2208 8.07224 12.2095 24.9111
651 2 2.2208 8.11288 6.61297 25.0092
652 2 2.2208 11.0172 6.5387 22.1606
653 2 2.2208 10.9294 12.315 22.0619
654 1 -1.1104 12.2049 8.05209 23.5179
655 1 -1.1104 12.2734 8.0159 26.2738
656 1 -1.1104 12.2211 5.20958 23.5799
657 1 -1.1104 12.3925 10.9297 23.5074
658 2 2.2208 10.8645 9.50297 24.9077
9400 2 2.2208 -0.349576 -1.81327 24.9298
583 2 2.2208 10.8499 15.0603 24.8263
516 1 -1.1104 3.92391 16.5225 20.8428
490 1 -1.1104 1.08487 13.6587 20.7892
547 2 2.2208 11.0048 17.841 22.237
546 1 -1.1104 6.68523 16.5613 26.1983
385 2 2.2208 2.45275 14.9379 22.1349
386 2 2.2208 2.38018 20.7592 22.0517
387 1 -1.1104 3.93596 16.3432 23.5274
412 1 -1.1104 0.988513 16.4664 23.437
418 1 -1.1104 3.87406 13.6356 26.3289
419 1 -1.1104 3.91912 16.3733 26.4356
420 2 2.2208 2.41954 17.7398 24.8875
454 1 -1.1104 3.95188 19.1291 26.2871
455 2 2.2208 5.23324 17.8857 22.0723
456 1 -1.1104 0.987794 13.519 23.4355
481 1 -1.1104 1.06294 19.2679 23.5086
483 2 2.2208 5.25187 14.9331 25.0021
517 2 2.2208 5.22626 20.5916 24.8596
519 1 -1.1104 0.910111 13.6248 26.1989
544 1 -1.1104 1.11643 16.5526 26.3933
545 1 -1.1104 1.03011 19.2542 26.2019
572 1 -1.1104 3.7845 13.513 23.6644
574 1 -1.1104 3.82494 19.2361 23.6399
604 2 2.2208 8.17982 20.614 22.2006
573 1 -1.1104 6.45951 13.7066 26.4742
643 2 2.2208 8.05277 15.0838 22.1607
609 1 -1.1104 12.2553 16.4908 26.3995
518 1 -1.1104 6.64712 19.1547 23.4854
526 1 -1.1104 12.3008 19.219 20.8703
642 1 -1.1104 9.54427 19.2097 26.52
582 1 -1.1104 12.1964 16.2037 23.4752
581 1 -1.1104 12.2719 19.1272 26.4306
641 1 -1.1104 9.40977 13.5522 26.1882
612 2 2.2208 8.00616 17.8324 24.9402
332 2 2.2208 8.10666 17.7339 13.7422
9366 2 2.2208 -0.378596 12.1897 22.1383
9588 2 2.2208 13.7018 9.51806 22.1976
383 2 2.2208 -0.418477 20.5746 24.9013
9438 2 2.2208 -0.409203 6.59821 16.6623
311 2 2.2208 2.45801 15.0673 27.7781
316 2 2.2208 10.7786 17.8175 27.7876
320 2 2.2208 10.8701 3.82212 13.6859
9248 2 2.2208 13.662 9.40207 27.7178
331 2 2.2208 10.9122 15.0476 13.8264
337 2 2.2208 8.02065 -1.89675 27.9665
9270 2 2.2208 13.5919 15.1381 27.7256
310 2 2.2208 5.30118 -1.7401 13.677
329 2 2.2208 5.31541 15.0212 13.8632
338 2 2.2208 8.00011 3.83864 27.8187
659 2 2.2208 5.34472 23.454 5.25101
660 2 2.2208 5.24318 29.0202 5.03047
661 1 -1.1104 1.11324 24.8932 0.936665
662 1 -1.1104 1.1549 24.8273 3.59511
663 1 -1.1104 1.1599 22.1125 1.10861
664 1 -1.1104 1.15421 27.635 0.965731
665 2 2.2208 5.30434 26.169 2.41162
666 1 -1.1104 1.08416 21.9908 3.93623
667 1 -1.1104 1.15364 27.5395 3.84292
668 1 -1.1104 3.85786 25.0588 0.919159
669 2 2.2208 2.47555 23.475 2.41139
670 2 2.2208 2.47748 29.0256 2.38151
671 1 -1.1104 3.90335 24.8316 3.7191
672 2 2.2208 2.53947 26.2023 5.22275
673 1 -1.1104 3.97326 22.2195 0.882192
674 1 -1.1104 3.8173 27.6963 1.00527
675 1 -1.1104 3.90534 22.1706 3.79395
676 1 -1.1104 3.93444 27.5805 3.81947
808 1 -1.1104 4.02358 27.5786 6.56154
803 1 -1.1104 1.0505 27.7382 6.69571
800 1 -1.1104 1.23549 24.8444 6.52142
802 1 -1.1104 1.18444 21.9712 6.72019
681 1 -1.1104 6.74464 24.7918 3.82208
804 1 -1.1104 6.64664 21.9491 6.7091
965 2 2.2208 2.5176 29.0008 13.6283
806 1 -1.1104 3.8753 24.7633 6.57778
807 1 -1.1104 3.92641 21.9867 6.59544
729 2 2.2208 -0.301493 31.8506 2.40051
1365 1 -1.1104 9.55717 47.3491 1.04604
680 1 -1.1104 6.84554 24.7297 1.03572
682 1 -1.1104 6.65431 22.1002 1.18316
684 1 -1.1104 6.78788 22.0256 4.0229
685 1 -1.1104 6.65347 27.6542 3.79123
683 1 -1.1104 6.76612 27.6126 1.01343
801 1 -1.1104 6.73992 24.7328 6.64862
686 2 2.2208 10.9066 23.373 5.32247
687 2 2.2208 10.8187 28.9445 5.22308
688 1 -1.1104 12.3983 24.7705 1.09916
689 1 -1.1104 12.3991 24.7067 3.85189
690 1 -1.1104 12.1939 21.9707 1.22529
691 1 -1.1104 12.4339 27.5117 1.147
692 2 2.2208 10.852 26.1197 2.49147
693 1 -1.1104 12.2553 21.9146 3.97542
694 1 -1.1104 12.3948 27.4418 3.86164
695 1 -1.1104 9.65136 24.8554 0.998766
696 2 2.2208 8.09781 23.3428 2.48518
697 2 2.2208 8.02819 29.0476 2.40759
698 1 -1.1104 9.51917 24.8061 3.84008
699 2 2.2208 7.97866 26.2135 5.1519
700 1 -1.1104 9.36471 21.9474 1.04661
701 1 -1.1104 9.65287 27.6228 0.945279
702 1 -1.1104 9.49973 21.9536 4.00009
703 1 -1.1104 9.44876 27.7343 3.75457
836 1 -1.1104 9.4456 24.7255 6.84504
834 1 -1.1104 12.3005 22.0247 6.71202
838 1 -1.1104 9.46072 27.57 6.52827
805 1 -1.1104 6.78763 27.5161 6.58326
979 2 2.2208 10.8546 37.4084 13.6249
833 1 -1.1104 12.3304 24.8776 6.69682
1317 1 -1.1104 1.10355 47.3767 3.78587
1527 1 -1.1104 3.79969 47.3653 9.38228
707 2 2.2208 5.28381 34.543 5.23999
708 1 -1.1104 1.08968 30.468 0.967975
709 1 -1.1104 1.13744 35.9343 1.02232
711 1 -1.1104 1.12491 30.2027 3.68881
712 1 -1.1104 1.16658 35.9189 3.95073
714 1 -1.1104 0.894385 33.1486 0.876466
715 2 2.2208 5.21445 31.8084 2.34966
716 2 2.2208 5.37967 37.5311 2.41529
717 1 -1.1104 1.08902 33.1356 3.86382
719 1 -1.1104 3.88542 30.462 0.882506
720 1 -1.1104 3.94825 36.1232 0.993735
721 2 2.2208 2.54219 34.5277 2.41237
722 1 -1.1104 3.94451 30.4164 3.65891
723 1 -1.1104 3.8707 36.1157 3.77257
724 2 2.2208 2.46762 31.8283 5.24798
725 2 2.2208 2.55226 37.4168 5.13445
726 1 -1.1104 3.78705 33.2315 0.897102
727 1 -1.1104 3.92711 33.238 3.70874
1354 1 -1.1104 12.3581 47.3478 0.828485
858 1 -1.1104 1.10601 36.1398 6.69678
863 1 -1.1104 4.04371 30.2889 6.48237
857 1 -1.1104 1.20994 30.6079 6.68039
713 1 -1.1104 6.72157 36.1487 3.80228
862 1 -1.1104 6.61914 33.1973 6.66699
990 2 2.2208 5.31448 23.5212 -0.395173
1524 1 -1.1104 3.81508 47.2867 12.0357
9895 2 2.2208 -0.23209 34.5515 10.8785
710 1 -1.1104 6.82401 36.2192 1.09165
731 1 -1.1104 6.75052 30.3931 0.933827
732 1 -1.1104 6.59362 30.4532 3.8252
718 1 -1.1104 6.72445 33.3028 3.67216
733 1 -1.1104 6.5605 33.3064 0.786879
734 2 2.2208 11.0829 34.6176 5.16525
735 1 -1.1104 12.2842 30.4613 1.07107
736 1 -1.1104 12.2725 35.9711 1.09553
737 1 -1.1104 12.171 30.5107 3.81988
738 1 -1.1104 12.4987 36.0132 3.89157
739 1 -1.1104 12.2169 33.1744 0.950835
740 2 2.2208 10.8891 31.8994 2.37468
741 2 2.2208 10.876 37.4134 2.37354
742 1 -1.1104 12.3959 33.2719 3.84485
743 1 -1.1104 9.5405 30.5422 1.08208
744 1 -1.1104 9.51039 35.9756 0.957417
745 2 2.2208 8.10099 34.6917 2.48657
746 1 -1.1104 9.41668 30.3913 3.88028
747 1 -1.1104 9.63563 36.0361 3.81395
748 2 2.2208 8.10107 31.903 5.15885
749 2 2.2208 8.06858 37.3788 5.17955
750 1 -1.1104 9.42116 33.3362 1.06106
751 1 -1.1104 9.51052 33.2732 3.78993
891 1 -1.1104 12.337 30.3506 6.64182
896 1 -1.1104 9.60368 33.0717 6.44401
895 1 -1.1104 9.58971 35.8502 6.54134
860 1 -1.1104 6.76737 35.9639 6.47106
894 1 -1.1104 9.53909 30.3198 6.61726
893 1 -1.1104 12.426 33.2378 6.75124
892 1 -1.1104 12.388 35.8584 6.72279