ITEM: TIMESTEP
20000
ITEM: NUMBER OF ATOMS
17760
ITEM: BOX BOUNDS pp pp pp
-3.6947208081732108e-01 2.7709472080817001e+01
-4.5412303231715150e+00 3.3262123032317362e+02
-3.6553025933135602e-01 2.7705530259331404e+01
ITEM: ATOMS id type q x y z
1 2 2.2208 5.14776 0.98014 5.2509
2 1 -1.1104 0.985535 -3.24722 0.798549
3 1 -1.1104 0.865359 2.42038 1.03547
6 1 -1.1104 1.02476 -3.13588 3.69857
7 1 -1.1104 0.737441 2.38571 3.80559
10 1 -1.1104 0.871902 -0.499342 0.888559
12 2 2.2208 5.15882 -1.89501 2.39206
13 2 2.2208 5.27905 3.86158 2.41397
14 1 -1.1104 0.891424 -0.434559 3.80366
16 1 -1.1104 3.6353 -3.24389 1.00603
17 1 -1.1104 3.66524 2.42354 1.011
18 2 2.2208 2.27288 0.986177 2.47061
19 1 -1.1104 3.82102 -3.22838 3.76247
20 1 -1.1104 3.67569 2.22259 3.82428
21 2 2.2208 2.38257 -1.80171 5.13798
22 2 2.2208 2.30399 3.70752 5.29367
23 1 -1.1104 3.69806 -0.353617 0.862654
24 1 -1.1104 3.64638 -0.530498 3.76571
15 1 -1.1104 6.55269 -0.421922 3.8692
167 1 -1.1104 0.90477 2.38915 6.4534
173 1 -1.1104 3.88918 2.45026 6.59585
174 1 -1.1104 3.63385 -0.498118 6.64223
172 1 -1.1104 3.8753 -3.27925 6.62812
166 1 -1.1104 1.04789 -3.0401 6.56615
170 1 -1.1104 0.893542 -0.257756 6.46716
169 1 -1.1104 6.55225 2.57883 6.68591
5 1 -1.1104 6.44651 2.2242 1.10569
9219 2 2.2208 13.6264 17.7148 8.08273
52 2 2.2208 10.8453 -4.72569 5.20551
9237 2 2.2208 13.6208 1.01487 8.21762
8 1 -1.1104 6.57821 -3.2558 3.81259
9 1 -1.1104 6.48932 2.33735 3.75027
11 1 -1.1104 6.39743 -0.481744 1.13343
4 1 -1.1104 6.56778 -3.29917 0.910029
31 2 2.2208 10.6355 0.960188 5.32428
32 1 -1.1104 12.1681 -3.03269 0.997826
33 1 -1.1104 12.186 2.25525 1.04332
34 1 -1.1104 12.2135 -3.27753 3.83015
35 1 -1.1104 12.3148 2.35734 3.86418
36 1 -1.1104 12.1639 -0.377536 1.10469
37 2 2.2208 10.7624 -1.77631 2.5521
38 2 2.2208 10.7503 3.817 2.58425
39 1 -1.1104 12.1647 -0.399829 3.81646
40 1 -1.1104 9.50698 -3.17008 1.09998
41 1 -1.1104 9.23963 2.43671 0.994399
42 2 2.2208 7.88193 1.05662 2.41596
43 1 -1.1104 9.31656 -3.33926 3.88172
44 1 -1.1104 9.37858 2.36712 3.75479
45 2 2.2208 8.04488 -1.8213 5.19862
46 2 2.2208 7.99518 3.88191 5.2374
47 1 -1.1104 9.11764 -0.348053 0.950443
48 1 -1.1104 9.3144 -0.376636 3.79722
171 1 -1.1104 6.59595 -0.31332 6.6218
207 1 -1.1104 12.1266 -0.356117 6.63084
205 1 -1.1104 12.3376 -3.30228 6.52217
168 1 -1.1104 6.53227 -3.22241 6.63375
209 1 -1.1104 9.30197 2.44877 6.69963
206 1 -1.1104 12.1399 2.36768 6.50841
9228 2 2.2208 -0.543769 12.1472 5.30096
51 2 2.2208 8.11951 -4.7096 2.32786
341 2 2.2208 7.98957 9.21295 -0.372941
9016 2 2.2208 13.6417 15.0001 5.23923
54 2 2.2208 5.12918 6.72208 5.27495
55 2 2.2208 5.08243 12.3371 5.15117
56 1 -1.1104 1.00262 8.09273 0.903609
58 1 -1.1104 0.986586 8.05398 3.76816
60 1 -1.1104 0.913119 5.15591 0.990121
61 1 -1.1104 0.974183 10.9401 0.904156
66 2 2.2208 5.20308 9.43339 2.42356
67 1 -1.1104 1.13458 5.31588 3.82167
68 1 -1.1104 1.03122 10.8675 3.84656
71 1 -1.1104 3.66708 8.11149 0.948025
72 2 2.2208 2.35884 6.67134 2.32613
73 2 2.2208 2.37568 12.3473 2.49504
74 1 -1.1104 3.73482 8.0049 3.73312
75 2 2.2208 2.44542 9.33941 5.21161
76 1 -1.1104 3.73464 5.23403 1.02264
77 1 -1.1104 3.76479 10.8098 1.10296
79 1 -1.1104 4.00196 5.05471 3.93304
80 1 -1.1104 3.75735 10.9034 3.82225
70 1 -1.1104 6.62322 10.881 3.88048
65 1 -1.1104 6.57899 10.6332 6.64164
239 1 -1.1104 3.697 5.18834 6.69354
64 1 -1.1104 6.60736 10.8876 1.19302
238 1 -1.1104 3.80854 8.00908 6.49325
62 1 -1.1104 1.04356 10.7036 6.58069
57 1 -1.1104 6.44579 7.97487 0.997864
69 1 -1.1104 6.65974 5.22567 3.78011
330 2 2.2208 10.9613 20.58 13.6976
9265 2 2.2208 13.6516 17.7599 13.6044
9238 2 2.2208 -0.35806 15.1072 8.10064
59 1 -1.1104 6.4889 7.9938 3.8206
63 1 -1.1104 6.49465 5.07895 1.06233
84 2 2.2208 10.8707 6.51375 5.1342
85 2 2.2208 10.7602 12.1762 5.18452
86 1 -1.1104 12.081 7.84489 1.10245
87 1 -1.1104 12.3643 7.95491 3.86326
88 1 -1.1104 12.0185 5.05332 0.949799
89 1 -1.1104 12.122 10.6332 0.978878
91 2 2.2208 10.7416 9.37342 2.45596
92 1 -1.1104 12.3091 5.18474 3.82715
93 1 -1.1104 12.1317 10.7496 3.78969
94 1 -1.1104 9.24077 7.74216 0.830195
95 2 2.2208 7.83996 6.59039 2.37287
96 2 2.2208 7.93371 12.29 2.43405
97 1 -1.1104 9.44325 7.90016 3.593
98 2 2.2208 7.95008 9.43658 5.24788
99 1 -1.1104 9.17155 5.00644 1.1322
100 1 -1.1104 9.32135 10.6193 0.937913
102 1 -1.1104 9.37063 5.12966 3.97362
103 1 -1.1104 9.34201 10.7028 3.83067
101 1 -1.1104 9.45313 10.8037 6.77019
269 1 -1.1104 9.41253 5.21812 6.53932
90 1 -1.1104 12.2027 10.4453 6.65273
265 1 -1.1104 12.2417 7.81757 6.61817
267 1 -1.1104 9.46686 8.01845 6.63633
266 1 -1.1104 12.0918 5.17492 6.56313
9230 2 2.2208 13.5606 6.52505 2.47846
9229 2 2.2208 13.5931 12.1 2.40519
9231 2 2.2208 -0.453387 14.9542 2.31052
106 2 2.2208 5.23965 17.7807 5.35589
107 1 -1.1104 1.15271 13.5996 1.14847
109 1 -1.1104 1.06848 19.2333 0.987817
113 1 -1.1104 0.868316 13.6056 3.77655
114 1 -1.1104 0.941448 19.2108 3.75633
116 1 -1.1104 1.02414 16.3943 1.02658
119 2 2.2208 5.24825 15.0762 2.40295
120 2 2.2208 5.15488 20.6449 2.49582
121 1 -1.1104 0.968133 16.3256 3.87036
123 1 -1.1104 3.94117 13.6805 1.00799
125 1 -1.1104 3.68315 19.3956 0.936161
127 2 2.2208 2.34525 17.9593 2.42325
128 1 -1.1104 3.68881 13.7769 3.86808
129 1 -1.1104 3.77264 19.2258 3.91613
130 2 2.2208 2.3658 15.021 5.17957
131 2 2.2208 2.35965 20.6644 5.21609
132 1 -1.1104 3.83032 16.5939 1.05468
134 1 -1.1104 3.62999 16.5319 3.8234
124 1 -1.1104 3.74289 13.5921 6.63033
115 1 -1.1104 6.58124 13.6513 3.88936
133 1 -1.1104 3.84472 16.3577 6.62619
302 1 -1.1104 0.901948 19.1639 6.63025
138 1 -1.1104 6.50394 19.1721 0.989354
140 1 -1.1104 6.68456 16.2378 0.990842
110 1 -1.1104 6.71139 13.6938 1.00161
118 1 -1.1104 6.76257 16.1842 6.61826
117 1 -1.1104 1.00649 16.3927 6.56361
126 1 -1.1104 3.86392 19.1777 6.65613
112 1 -1.1104 6.62372 19.0423 6.841
108 1 -1.1104 0.934274 13.6171 6.63618
122 1 -1.1104 6.50211 16.3765 3.77041
139 1 -1.1104 6.61078 19.1753 3.86574
149 1 -1.1104 12.3609 16.1696 6.69325
141 2 2.2208 10.7368 17.7513 5.19052
142 1 -1.1104 12.2082 13.4758 0.815158
144 1 -1.1104 12.2866 19.1994 0.851001
146 1 -1.1104 12.2463 13.4869 3.60235
147 1 -1.1104 12.1864 19.0234 3.71835
148 1 -1.1104 12.114 16.4335 1.07163
150 2 2.2208 10.9259 15.0177 2.3514
151 2 2.2208 10.8744 20.5131 2.28126
152 1 -1.1104 12.2258 16.2326 3.90405
153 1 -1.1104 9.33587 13.4882 0.91493
155 1 -1.1104 9.40939 19.1881 0.927628
157 2 2.2208 7.95185 17.7635 2.3548
158 1 -1.1104 9.43872 13.5312 3.84588
159 1 -1.1104 9.34278 19.2384 3.5566
160 2 2.2208 8.01636 14.8405 5.1587
161 2 2.2208 7.96902 20.6074 5.30369
162 1 -1.1104 9.36719 16.3816 1.01937
164 1 -1.1104 9.37565 16.3913 3.73108
156 1 -1.1104 9.47299 19.2522 6.51757
154 1 -1.1104 9.35686 13.5783 6.51134
143 1 -1.1104 12.1883 13.3683 6.72418
9234 2 2.2208 13.5946 17.8042 2.27651
145 1 -1.1104 12.1244 18.9566 6.55942
9134 2 2.2208 13.8303 9.4162 10.7968
333 2 2.2208 5.16845 0.985799 -0.424266
137 2 2.2208 7.96025 14.9397 10.8695
9226 2 2.2208 -0.42881 6.60946 5.19471
8947 2 2.2208 13.58 9.34249 5.27038
8995 2 2.2208 13.6227 20.4719 5.10656
9241 2 2.2208 13.6043 -1.97074 11.0359
175 2 2.2208 5.09338 0.996648 10.7832
176 1 -1.1104 0.962347 -3.2812 12.2372
177 1 -1.1104 0.890375 2.44719 12.1624
180 1 -1.1104 0.873987 -3.32781 9.36557
181 1 -1.1104 0.919012 2.30416 9.36705
184 1 -1.1104 0.883262 -0.468813 12.1314
186 2 2.2208 5.10713 -1.79465 8.0183
187 2 2.2208 5.15937 3.93245 8.0681
188 1 -1.1104 0.890819 -0.384613 9.32654
190 1 -1.1104 3.7824 -3.05965 12.1276
191 1 -1.1104 3.66035 2.50482 12.2935
192 2 2.2208 2.27381 0.930075 7.89916
193 1 -1.1104 3.79699 -3.17629 9.4219
194 1 -1.1104 3.76198 2.47793 9.48821
195 2 2.2208 2.28135 -1.70591 10.7241
197 1 -1.1104 3.74911 -0.277211 12.3337
198 1 -1.1104 3.58401 -0.482837 9.31672
196 2 2.2208 2.30225 3.87449 10.8825
9224 2 2.2208 13.5133 -1.71343 5.33106
8918 2 2.2208 13.6261 3.78642 5.32335
9223 2 2.2208 13.479 0.974138 2.47252
208 1 -1.1104 9.6037 -3.17479 6.53487
210 1 -1.1104 9.21162 -0.361602 6.73029
9140 2 2.2208 -0.486459 12.246 10.8462
178 1 -1.1104 6.52462 -3.13923 12.1664
185 1 -1.1104 6.58061 -0.443988 12.1654
189 1 -1.1104 6.41105 -0.397432 9.37521
183 1 -1.1104 6.48791 2.40364 9.47215
182 1 -1.1104 6.71092 -3.14395 9.35174
179 1 -1.1104 6.47782 2.29012 12.085
211 2 2.2208 10.8634 1.07173 10.7782
212 1 -1.1104 12.2178 -3.33403 12.3073
213 1 -1.1104 12.2479 2.59117 12.2682
214 1 -1.1104 12.2663 -3.22545 9.45334
215 1 -1.1104 12.2595 2.43802 9.42743
216 1 -1.1104 12.2806 -0.334275 12.3078
217 2 2.2208 10.8441 -1.70898 8.03711
218 2 2.2208 10.8374 3.83404 7.95898
219 1 -1.1104 12.0288 -0.380768 9.59214
220 1 -1.1104 9.45409 -3.0225 12.2952
221 1 -1.1104 9.42468 2.41448 12.2771
222 2 2.2208 7.87701 1.09916 8.10798
223 1 -1.1104 9.50017 -3.04931 9.42884
224 1 -1.1104 9.28261 2.39796 9.41486
225 2 2.2208 7.99628 -1.79623 10.8485
226 2 2.2208 7.90685 3.73816 10.931
227 1 -1.1104 9.52703 -0.419465 12.3342
228 1 -1.1104 9.3194 -0.329088 9.49416
9180 2 2.2208 13.6036 20.5569 10.7373
111 1 -1.1104 6.60752 13.503 6.45549
236 1 -1.1104 0.933783 5.13448 6.62531
135 1 -1.1104 9.3992 13.4123 9.59329
49 1 -1.1104 12.2118 19.1204 9.33613
234 1 -1.1104 0.839346 7.88547 6.64575
78 1 -1.1104 3.59661 10.6602 6.60879
240 2 2.2208 5.0781 6.5635 10.8106
241 2 2.2208 5.16402 12.1449 10.8288
242 1 -1.1104 0.877082 8.02445 12.3241
244 1 -1.1104 1.10071 8.12421 9.55148
246 1 -1.1104 1.04794 5.28592 12.2691
247 1 -1.1104 0.888736 10.942 12.1927
250 2 2.2208 5.1648 9.32619 7.92838
251 1 -1.1104 0.81334 5.19673 9.43447
252 1 -1.1104 0.951324 10.9084 9.46836
255 1 -1.1104 3.69114 8.11004 12.0468
256 2 2.2208 2.42834 6.68352 7.98874
257 2 2.2208 2.34673 12.2725 8.07026
258 1 -1.1104 3.72734 7.90352 9.3502
259 2 2.2208 2.32847 9.52744 10.8512
260 1 -1.1104 3.81426 5.19297 12.2531
261 1 -1.1104 3.73608 10.9103 12.0891
262 1 -1.1104 3.68931 5.2588 9.4766
263 1 -1.1104 3.84537 10.7541 9.35899
245 1 -1.1104 6.5297 8.00301 9.56228
248 1 -1.1104 6.62081 5.05164 12.3868
327 2 2.2208 2.37885 17.976 13.6964
200 1 -1.1104 9.36974 16.3738 9.44217
249 1 -1.1104 6.62959 10.9398 12.1584
50 1 -1.1104 12.1876 16.4703 12.2866
83 1 -1.1104 9.40758 13.4665 12.2921
136 1 -1.1104 9.51798 19.1024 9.3089
237 1 -1.1104 6.61986 5.27095 6.64063
235 1 -1.1104 6.65898 8.01232 6.68407
81 2 2.2208 10.9308 20.4166 8.00715
9129 2 2.2208 13.6382 6.55739 7.95252
254 1 -1.1104 6.58165 10.7484 9.42589
253 1 -1.1104 6.62067 5.32813 9.38889
243 1 -1.1104 6.47254 7.93409 12.27
264 1 -1.1104 9.35197 10.6155 9.4721
268 1 -1.1104 9.51518 5.0076 9.3036
270 1 -1.1104 9.42445 10.7468 12.3367
271 1 -1.1104 9.31991 5.2035 12.2851
272 2 2.2208 8.0278 9.4134 10.9633
273 1 -1.1104 9.30401 7.93837 9.42074
274 2 2.2208 7.95403 12.1752 8.02808
275 2 2.2208 8.00098 6.61155 8.07294
276 2 2.2208 10.8779 6.53987 10.7606
277 2 2.2208 10.7359 12.2616 10.9487
278 1 -1.1104 12.3607 7.92378 12.115
279 1 -1.1104 12.2803 8.05387 9.41618
280 1 -1.1104 12.1293 5.2958 12.1875
281 1 -1.1104 12.0974 10.8413 12.3531
282 2 2.2208 10.7714 9.32582 8.16117
283 1 -1.1104 12.3439 5.19883 9.36472
284 1 -1.1104 12.2312 10.8334 9.5223
285 1 -1.1104 9.36187 7.94801 12.0565
25 2 2.2208 10.6851 17.7516 10.8208
26 1 -1.1104 12.2436 13.7069 12.2518
289 1 -1.1104 6.68032 16.3343 9.37656
288 1 -1.1104 6.62317 19.0574 9.58509
297 1 -1.1104 6.71536 13.6655 12.3251
306 1 -1.1104 6.63333 16.4024 12.2804
290 1 -1.1104 6.72233 13.5815 9.34655
229 2 2.2208 2.30453 15.0911 10.9952
230 2 2.2208 2.43052 20.6706 10.7097
233 1 -1.1104 3.79505 16.4852 12.3481
286 1 -1.1104 3.91359 19.1564 12.3536
287 1 -1.1104 3.68463 13.7666 12.3943
291 1 -1.1104 1.03465 19.2919 9.24633
292 1 -1.1104 1.0069 16.5877 9.43922
293 2 2.2208 5.32082 20.5761 8.0567
294 1 -1.1104 0.983075 13.7542 9.52147
295 2 2.2208 5.19341 14.9736 8.04789
298 1 -1.1104 1.11394 19.3502 12.1985
299 1 -1.1104 0.932637 13.7069 12.3045
300 2 2.2208 5.2088 17.7629 10.9038
301 1 -1.1104 3.78387 19.2662 9.55577
303 2 2.2208 2.37736 17.7727 7.88781
304 1 -1.1104 3.82911 16.6092 9.42345
305 1 -1.1104 3.80815 13.5544 9.63683
307 1 -1.1104 1.04928 16.5905 12.3104
296 1 -1.1104 6.65913 19.1943 12.3766
27 1 -1.1104 12.1267 19.2125 12.1484
328 2 2.2208 5.1251 20.5693 13.6482
332 2 2.2208 8.00541 17.8281 13.5596
199 1 -1.1104 9.47398 16.302 12.2101
163 1 -1.1104 9.54111 16.212 6.62793
30 1 -1.1104 12.2616 13.5608 9.48293
104 1 -1.1104 9.44007 18.9829 12.0517
165 2 2.2208 8.10402 20.5791 10.8338
82 1 -1.1104 12.1217 16.3867 9.47892
105 2 2.2208 8.14152 17.6486 8.10321
53 2 2.2208 10.8128 14.7748 8.10278
334 2 2.2208 2.43623 -1.76497 -0.437226
335 2 2.2208 2.2597 3.80602 -0.315137
329 2 2.2208 5.22746 14.9572 13.7218
319 2 2.2208 10.8399 -1.66383 13.658
9253 2 2.2208 -0.451718 12.2574 -0.426505
310 2 2.2208 5.12019 -1.6883 13.6081
326 2 2.2208 8.02085 12.0627 13.7517
317 2 2.2208 8.02485 20.6081 -0.522675
314 2 2.2208 2.37937 0.989373 13.7165
9277 2 2.2208 -0.396589 14.939 13.6469
315 2 2.2208 5.1495 3.73032 13.6192
9248 2 2.2208 13.6206 9.29674 -0.406441
339 2 2.2208 5.01026 6.73423 -0.462885
320 2 2.2208 10.8088 3.79037 13.719
9247 2 2.2208 13.6222 0.929314 13.7826
342 2 2.2208 10.6749 6.55682 -0.445607
345 2 2.2208 5.22186 0.974876 16.4456
346 1 -1.1104 0.813451 -3.22169 17.8674
347 1 -1.1104 1.07875 2.36728 17.7776
350 1 -1.1104 0.906117 -3.18813 15.1729
352 1 -1.1104 1.1483 2.29648 14.9642
358 1 -1.1104 1.09594 -0.550678 17.7239
360 2 2.2208 5.17073 -1.82809 19.1667
362 1 -1.1104 1.04 -0.441648 14.9861
366 1 -1.1104 3.63718 -3.32554 17.8255
367 1 -1.1104 3.76144 2.32797 18.0172
368 2 2.2208 2.38791 0.910236 19.1823
369 1 -1.1104 3.75192 -3.21617 14.9613
371 1 -1.1104 3.73442 2.39745 15.1023
373 2 2.2208 2.45166 -1.77363 16.3604
374 2 2.2208 2.42725 3.65366 16.4985
375 1 -1.1104 3.7814 -0.444674 17.779
376 1 -1.1104 3.84695 -0.353704 15.1279
351 1 -1.1104 0.927884 -3.17552 20.6271
377 1 -1.1104 3.89089 -0.466565 20.4712
370 1 -1.1104 3.75633 -3.27081 20.621
364 1 -1.1104 6.61702 -0.323409 14.9743
361 2 2.2208 5.19851 3.739 19.2729
578 2 2.2208 5.19249 -4.71911 21.9756
353 1 -1.1104 0.924766 2.30087 20.405
363 1 -1.1104 1.01267 -0.416876 20.5436
354 1 -1.1104 6.4087 -3.09136 14.9078
349 1 -1.1104 6.55132 2.32324 17.8841
9270 2 2.2208 13.6473 14.9416 27.6428
324 2 2.2208 8.03069 6.61569 13.6389
9328 2 2.2208 13.8407 0.95706 19.3162
321 2 2.2208 2.30908 6.59425 13.6311
359 1 -1.1104 6.59147 -0.314975 17.8462
355 1 -1.1104 6.5661 -3.28675 20.4886
356 1 -1.1104 6.49531 2.29495 14.9076
348 1 -1.1104 6.33537 -3.01941 17.5834
388 2 2.2208 10.8357 1.05387 16.4412
389 1 -1.1104 12.299 -3.15557 17.7733
390 1 -1.1104 12.1489 2.47397 17.7043
391 1 -1.1104 12.2791 -3.1733 15.0097
393 1 -1.1104 12.1622 2.42181 15.027
395 1 -1.1104 12.3249 -0.342913 17.9399
396 2 2.2208 10.8412 -1.65412 19.1747
397 2 2.2208 10.7933 3.82863 19.157
398 1 -1.1104 12.288 -0.366447 15.0876
400 1 -1.1104 9.52465 -3.10012 17.8513
401 1 -1.1104 9.41392 2.47764 17.7281
402 2 2.2208 8.04544 1.01666 19.4191
403 1 -1.1104 9.42071 -3.19611 15.2318
405 1 -1.1104 9.44204 2.35314 15.0112
407 2 2.2208 7.96673 -1.73707 16.4559
409 1 -1.1104 9.30619 -0.36553 17.8787
410 1 -1.1104 9.38727 -0.376076 15.1038
392 1 -1.1104 12.1581 -3.26399 20.6613
408 2 2.2208 7.95672 3.63984 16.4739
357 1 -1.1104 6.57083 2.3513 20.6758
404 1 -1.1104 9.38257 -3.24378 20.6548
411 1 -1.1104 9.54867 -0.424527 20.7974
399 1 -1.1104 12.2092 -0.355231 20.5891
365 1 -1.1104 6.66928 -0.479256 20.6071
394 1 -1.1104 12.2007 2.41257 20.461
9269 2 2.2208 13.5708 20.5125 27.5991
9396 2 2.2208 13.644 9.30979 16.5788
379 2 2.2208 5.05351 -4.61797 16.4615
9470 2 2.2208 -0.4625 -1.87403 19.2849
9399 2 2.2208 -0.491673 0.911517 22.0482
421 2 2.2208 5.21859 6.56283 16.4161
422 2 2.2208 5.18135 12.1417 16.3528
423 1 -1.1104 1.0413 7.98963 18.0173
425 1 -1.1104 0.994871 8.06329 15.0187
429 1 -1.1104 0.90339 5.07 18.0198
430 1 -1.1104 1.138 10.894 17.8283
433 2 2.2208 5.16401 9.35168 19.223
434 1 -1.1104 0.984089 5.02202 15.1573
436 1 -1.1104 0.964928 10.8282 14.9695
442 1 -1.1104 3.88321 8.15562 17.7101
443 2 2.2208 2.34622 6.55769 19.3401
444 2 2.2208 2.42404 12.2272 19.2247
445 1 -1.1104 3.85539 7.89285 14.8595
447 2 2.2208 2.37951 9.41202 16.361
448 1 -1.1104 3.73724 5.2556 17.9542
449 1 -1.1104 3.95475 10.8836 17.9041
450 1 -1.1104 3.74994 5.11633 15.1392
452 1 -1.1104 3.70204 10.6948 14.9043
432 1 -1.1104 6.70567 10.7018 17.851
426 1 -1.1104 0.913179 8.1339 20.5829
446 1 -1.1104 3.83388 7.90168 20.5843
435 1 -1.1104 0.943894 5.09865 20.9315
440 1 -1.1104 6.52858 10.6585 14.9418
437 1 -1.1104 1.0703 10.8685 20.7117
451 1 -1.1104 3.70613 4.94468 20.7332
441 1 -1.1104 6.40775 10.6741 20.7155
428 1 -1.1104 6.44619 8.13452 20.814
9324 2 2.2208 -0.458451 14.939 24.883
9368 2 2.2208 13.5603 0.992913 24.8981
431 1 -1.1104 6.62621 5.22414 17.8837
424 1 -1.1104 6.51098 7.88682 17.9674
438 1 -1.1104 6.68997 5.18791 15.2028
427 1 -1.1104 6.60328 8.00285 15.0139
457 2 2.2208 10.7691 6.59495 16.4216
458 2 2.2208 10.8089 12.1588 16.4373
459 1 -1.1104 12.1718 7.92451 17.9962
460 1 -1.1104 12.164 7.82331 14.9734
462 1 -1.1104 12.0987 5.19821 17.879
463 1 -1.1104 12.2743 10.7121 17.8941
464 2 2.2208 10.7239 9.332 19.3709
465 1 -1.1104 12.3554 5.21213 15.0599
467 1 -1.1104 12.1342 10.5761 15.121
469 1 -1.1104 9.46047 7.94129 17.9213
470 2 2.2208 7.86981 6.61458 19.351
471 2 2.2208 7.97354 12.1342 19.2374
472 1 -1.1104 9.35057 7.85731 15.0731
474 2 2.2208 7.95329 9.21375 16.4566
475 1 -1.1104 9.2808 5.36804 17.8783
476 1 -1.1104 9.52808 10.7502 18.0667
477 1 -1.1104 9.49031 5.05251 15.0784
479 1 -1.1104 9.2716 10.6257 15.2448
468 1 -1.1104 12.2092 10.5933 20.5517
461 1 -1.1104 12.1132 7.97713 20.7868
473 1 -1.1104 9.31763 7.86327 20.7591
9439 2 2.2208 13.6969 -1.76932 16.4954
439 1 -1.1104 6.49183 5.29653 20.7128
480 1 -1.1104 9.39581 10.7879 20.8273
9508 2 2.2208 -0.409173 15.1088 19.2264
484 2 2.2208 5.23354 17.6877 16.481
485 1 -1.1104 1.00809 13.7094 17.9218
486 1 -1.1104 1.03225 19.4149 17.7462
489 1 -1.1104 0.996157 13.5834 15.1717
491 1 -1.1104 0.874659 19.2836 14.9395
497 1 -1.1104 0.985781 16.5232 17.8211
499 2 2.2208 5.18284 14.9978 19.1869
500 2 2.2208 5.19662 20.6602 19.2989
501 1 -1.1104 1.17926 16.3506 14.9607
505 1 -1.1104 3.7284 13.5993 17.8107
506 1 -1.1104 3.88297 19.1923 17.8079
507 2 2.2208 2.34321 17.8657 19.2595
508 1 -1.1104 3.84748 13.5036 15.0504
510 1 -1.1104 3.74725 19.3121 15.0838
512 2 2.2208 2.49318 15.1233 16.4909
513 2 2.2208 2.44491 20.8114 16.4826
514 1 -1.1104 3.82291 16.3665 17.9469
515 1 -1.1104 3.85846 16.4764 15.1678
493 1 -1.1104 6.55154 13.4167 14.9651
492 1 -1.1104 0.972656 19.208 20.6413
488 1 -1.1104 6.72645 19.264 17.8656
498 1 -1.1104 6.8592 16.3539 17.9855
495 1 -1.1104 6.55907 19.0952 15.1022
503 1 -1.1104 6.74818 16.328 15.1379
496 1 -1.1104 6.54661 19.2272 20.737
487 1 -1.1104 6.52928 13.5846 17.7813
516 1 -1.1104 3.89099 16.3913 20.6696
502 1 -1.1104 1.03595 16.2996 20.4692
494 1 -1.1104 6.53861 13.4452 20.524
603 1 -1.1104 9.24601 16.3721 23.3233
536 1 -1.1104 9.30802 13.5428 20.5533
543 1 -1.1104 9.65381 16.4655 20.5094
520 2 2.2208 10.8313 17.7095 16.333
521 1 -1.1104 12.1579 13.66 17.6605
522 1 -1.1104 12.3404 19.0352 17.6837
523 1 -1.1104 12.0899 13.4415 14.949
525 1 -1.1104 12.3599 19.2312 14.9466
527 1 -1.1104 12.305 16.3274 17.8122
528 2 2.2208 10.8356 14.8873 19.1346
529 2 2.2208 10.7517 20.6018 19.3575
530 1 -1.1104 12.3551 16.3046 15.0757
532 1 -1.1104 9.3333 13.5222 17.7616
533 1 -1.1104 9.48785 19.2104 17.7958
534 2 2.2208 8.11874 17.8226 19.3148
535 1 -1.1104 9.31993 13.4695 15.0563
537 1 -1.1104 9.38951 19.127 14.8706
539 2 2.2208 8.08438 14.9424 16.5665
540 2 2.2208 8.13158 20.5485 16.4927
541 1 -1.1104 9.56938 16.3783 17.7855
542 1 -1.1104 9.54885 16.2754 15.0155
526 1 -1.1104 12.2458 19.172 20.5301
531 1 -1.1104 12.4507 16.5006 20.6761
538 1 -1.1104 9.40775 19.2031 20.7207
9469 2 2.2208 13.7809 20.6292 16.377
524 1 -1.1104 12.1338 13.5088 20.5609
343 2 2.2208 2.31602 9.49143 27.7039
582 1 -1.1104 12.1004 16.2489 23.4463
372 1 -1.1104 3.73304 2.32935 20.7123
548 2 2.2208 5.13602 1.0314 22.0339
549 1 -1.1104 1.01172 -3.20178 23.599
550 1 -1.1104 0.99724 2.46488 23.5209
553 1 -1.1104 0.999956 -3.2851 26.2334
554 1 -1.1104 0.824 2.33349 26.2933
557 1 -1.1104 0.964612 -0.345177 23.2469
559 2 2.2208 5.24852 -1.81045 24.7894
560 2 2.2208 5.14097 3.88435 24.9798
561 1 -1.1104 0.989717 -0.438012 26.1869
563 1 -1.1104 3.82967 -3.11891 23.3559
564 1 -1.1104 3.72334 2.60951 23.5129
565 2 2.2208 2.35671 1.02652 24.7904
566 1 -1.1104 3.88493 -3.19636 26.3008
567 1 -1.1104 3.76361 2.38401 26.1857
568 2 2.2208 2.47031 -1.85734 21.9763
569 2 2.2208 2.24254 3.76172 22.0796
570 1 -1.1104 3.68059 -0.288451 23.3033
571 1 -1.1104 3.74226 -0.39949 26.0793
610 1 -1.1104 9.34169 13.6965 23.3654
558 1 -1.1104 6.43582 -0.454969 23.2623
552 1 -1.1104 6.65898 2.24268 23.4849
9322 2 2.2208 13.5934 3.88744 16.4047
642 1 -1.1104 9.49096 19.1602 26.2602
9397 2 2.2208 13.5514 6.56613 19.4136
9466 2 2.2208 13.6276 14.8394 16.4285
581 1 -1.1104 12.3278 19.064 26.0975
641 1 -1.1104 9.47446 13.4963 26.2559
406 1 -1.1104 9.53419 2.43277 20.6504
9398 2 2.2208 13.5765 12.1372 19.1609
562 1 -1.1104 6.57866 -0.344948 26.206
547 2 2.2208 10.7637 17.7498 22.0525
605 2 2.2208 10.8225 20.5432 24.917
551 1 -1.1104 6.5161 -3.33508 23.3415
556 1 -1.1104 6.5457 2.48211 26.2608
555 1 -1.1104 6.58687 -3.05164 26.165
584 2 2.2208 10.8724 1.16821 21.9974
585 1 -1.1104 12.2405 -3.33203 23.6349
586 1 -1.1104 12.2348 2.53381 23.2904
587 1 -1.1104 12.4154 -3.27553 26.3915
588 1 -1.1104 12.0398 2.37234 26.1035
589 1 -1.1104 12.1535 -0.315452 23.5696
590 2 2.2208 10.8379 -1.81587 24.9403
591 2 2.2208 10.7982 3.87218 24.8719
592 1 -1.1104 12.3299 -0.406201 26.3153
593 1 -1.1104 9.39052 -3.28802 23.4357
594 1 -1.1104 9.4069 2.30146 23.4307
595 2 2.2208 7.95899 0.901192 24.8103
596 1 -1.1104 9.52097 -3.33321 26.2513
597 1 -1.1104 9.31471 2.14553 26.2212
598 2 2.2208 7.9946 -1.84708 21.9658
599 2 2.2208 8.05889 3.76948 22.0621
600 1 -1.1104 9.47673 -0.543388 23.5035
601 1 -1.1104 9.49846 -0.554409 26.3607
602 1 -1.1104 9.21773 16.3597 26.175
9323 2 2.2208 -0.534479 17.8251 22.02
9465 2 2.2208 13.4791 17.6803 24.708
580 1 -1.1104 12.2316 13.6481 26.1862
453 1 -1.1104 3.65392 10.7127 20.6925
336 2 2.2208 10.7291 0.956028 27.7109
612 2 2.2208 8.03597 17.6985 24.7746
613 2 2.2208 4.9718 6.54917 22.1333
614 2 2.2208 5.20903 12.2917 21.9918
615 1 -1.1104 0.758491 7.98126 23.4671
617 1 -1.1104 0.943125 7.97189 26.2771
619 1 -1.1104 0.578918 5.37532 23.5326
620 1 -1.1104 0.930936 10.692 23.5504
623 2 2.2208 5.25823 9.51004 24.8343
624 1 -1.1104 0.888606 5.18804 26.2726
625 1 -1.1104 0.863459 10.7476 26.3259
628 1 -1.1104 3.73637 8.01234 23.4375
629 2 2.2208 2.21226 6.62666 24.8942
630 2 2.2208 2.3126 12.0889 24.8981
631 1 -1.1104 3.74809 8.04513 26.236
632 2 2.2208 2.27551 9.36578 22.0811
633 1 -1.1104 3.61652 5.33053 23.5761
634 1 -1.1104 3.81511 10.8158 23.5157
635 1 -1.1104 3.62938 5.16227 26.3744
636 1 -1.1104 3.72626 10.7 26.3336
627 1 -1.1104 6.67507 10.8365 26.3031
626 1 -1.1104 6.54332 5.14969 26.429
616 1 -1.1104 6.55142 8.173 23.5691
621 1 -1.1104 6.59987 5.13361 23.5738
622 1 -1.1104 6.50723 11.0102 23.5257
618 1 -1.1104 6.54687 8.03307 26.2564
575 1 -1.1104 12.234 13.6259 23.3173
478 1 -1.1104 9.28342 5.08617 20.6491
466 1 -1.1104 12.1186 5.16917 20.7079
637 1 -1.1104 9.32838 8.01046 23.503
638 1 -1.1104 12.168 10.8666 26.3345
639 1 -1.1104 12.1172 5.18783 26.2878
644 1 -1.1104 9.55219 10.5856 26.2604
645 1 -1.1104 9.30148 5.13755 26.2275
646 1 -1.1104 9.32834 10.9043 23.5334
647 1 -1.1104 9.33232 5.12482 23.4912
648 2 2.2208 7.89302 9.41139 22.1802
649 1 -1.1104 9.30017 7.95459 26.2158
650 2 2.2208 7.97627 12.1862 24.8865
651 2 2.2208 7.81704 6.61816 24.9198
652 2 2.2208 10.7073 6.55408 22.0719
653 2 2.2208 10.8689 12.2609 22.117
654 1 -1.1104 12.1149 8.13505 23.4743
655 1 -1.1104 12.1246 7.95415 26.2233
656 1 -1.1104 12.1952 5.35408 23.5228
657 1 -1.1104 12.1477 10.8654 23.4645
658 2 2.2208 10.7777 9.3697 24.8188
9441 2 2.2208 13.5596 20.5065 21.8898
583 2 2.2208 10.7835 14.8644 24.8378
325 2 2.2208 10.9465 9.30618 13.5827
9467 2 2.2208 13.6212 14.9083 21.9333
576 1 -1.1104 12.0402 19.1105 23.4029
511 1 -1.1104 3.78898 19.1614 20.5293
313 2 2.2208 2.318 20.6986 27.6098
504 1 -1.1104 6.72763 16.3486 20.6957
640 1 -1.1104 6.63708 19.2037 26.2898
482 1 -1.1104 6.74428 13.6315 23.4048
509 1 -1.1104 3.71387 13.6859 20.7824
490 1 -1.1104 0.949514 13.6316 20.7491
385 2 2.2208 2.33256 14.9381 22.1392
386 2 2.2208 2.32806 20.738 21.9654
387 1 -1.1104 3.7761 16.5307 23.5943
412 1 -1.1104 0.848503 16.3478 23.4586
418 1 -1.1104 3.79165 13.4711 26.2543
419 1 -1.1104 3.74427 16.3509 26.3631
420 2 2.2208 2.35194 17.8567 24.8728
454 1 -1.1104 3.83535 19.2243 26.2559
455 2 2.2208 5.17943 17.8887 22.1508
456 1 -1.1104 0.971159 13.5213 23.673
481 1 -1.1104 0.933083 19.1155 23.3563
483 2 2.2208 5.16521 14.9466 24.8994
517 2 2.2208 5.06589 20.6662 24.8034
519 1 -1.1104 0.819326 13.596 26.3471
544 1 -1.1104 1.03584 16.272 26.2535
545 1 -1.1104 0.961035 19.1653 26.1748
572 1 -1.1104 3.66099 13.6184 23.3879
574 1 -1.1104 3.68756 19.38 23.4967
518 1 -1.1104 6.44987 19.1363 23.4995
311 2 2.2208 2.40784 15.0953 27.7783
573 1 -1.1104 6.62452 13.5142 26.2265
416 1 -1.1104 6.50736 16.45 23.4478
604 2 2.2208 8.03535 20.5883 22.189
546 1 -1.1104 6.53038 16.3278 26.1767
643 2 2.2208 8.0066 14.9574 22.0246
611 1 -1.1104 9.27223 19.1433 23.5805
609 1 -1.1104 12.0127 16.3712 26.2207
9258 2 2.2208 13.6658 6.57519 13.5864
9326 2 2.2208 13.6386 12.0262 24.9649
308 2 2.2208 7.95279 14.9737 27.6396
9325 2 2.2208 13.5887 6.63669 24.9367
9468 2 2.2208 13.6533 17.7412 19.1779
9588 2 2.2208 13.6083 9.44093 22.0592
9529 2 2.2208 13.6232 3.89251 22.1001
312 2 2.2208 5.27912 17.8532 27.6076
337 2 2.2208 7.98015 -1.91198 27.5883
577 2 2.2208 5.07177 -4.66427 27.6285
323 2 2.2208 2.37502 12.203 13.5918
344 2 2.2208 5.16021 12.0724 27.7534
9257 2 2.2208 13.5639 -1.7233 27.8832
331 2 2.2208 10.8438 14.8896 13.6198
316 2 2.2208 10.7183 17.7206 27.5938
322 2 2.2208 5.10591 9.36712 13.6045
340 2 2.2208 10.759 12.0083 27.6905
318 2 2.2208 7.97864 1.09245 13.5238
338 2 2.2208 7.86651 3.66789 27.7208
659 2 2.2208 5.24473 23.4108 5.29798
660 2 2.2208 5.24326 29.174 5.18458
661 1 -1.1104 1.16715 24.8519 0.910991
662 1 -1.1104 1.06699 24.7571 3.83771
663 1 -1.1104 0.893282 22.0062 1.09703
664 1 -1.1104 1.10311 27.8156 0.987603
665 2 2.2208 5.24157 26.2104 2.4749
666 1 -1.1104 0.992498 21.9914 3.85158
667 1 -1.1104 0.94112 27.764 3.82833
668 1 -1.1104 3.90019 24.8221 1.20178
669 2 2.2208 2.42385 23.403 2.46461
670 2 2.2208 2.49619 29.3174 2.34839
671 1 -1.1104 3.93638 24.8656 3.90121
672 2 2.2208 2.43586 26.2689 5.23884
673 1 -1.1104 3.78862 22.1252 0.977499
674 1 -1.1104 3.81194 27.8837 0.981221
675 1 -1.1104 3.84911 22.1025 3.8152
676 1 -1.1104 3.80889 27.7227 3.68264
808 1 -1.1104 3.7917 27.6388 6.6185
803 1 -1.1104 1.01436 27.7911 6.59392
804 1 -1.1104 6.58634 21.9285 6.67881
801 1 -1.1104 6.6913 24.686 6.7295
684 1 -1.1104 6.55846 22.0638 3.85076
681 1 -1.1104 6.72559 24.8488 3.91214
806 1 -1.1104 3.87996 24.7205 6.64606
1354 1 -1.1104 12.0297 47.2972 0.71528
9955 2 2.2208 13.6753 26.1872 5.24813
1508 1 -1.1104 3.65817 47.5236 6.60725
680 1 -1.1104 6.66732 24.7883 1.11305
685 1 -1.1104 6.68307 27.731 3.8562
682 1 -1.1104 6.5469 22.0553 0.903961
683 1 -1.1104 6.77012 27.5433 1.05277
686 2 2.2208 10.7874 23.3592 5.20141
687 2 2.2208 10.8633 29.0508 5.01925
688 1 -1.1104 12.199 24.7713 0.891379
689 1 -1.1104 12.1794 24.6766 3.71813
690 1 -1.1104 12.2476 21.8741 0.895792
691 1 -1.1104 12.1124 27.613 1.13785
692 2 2.2208 10.7442 26.2789 2.44714
693 1 -1.1104 12.2792 21.8553 3.66975
694 1 -1.1104 12.3015 27.4476 3.85087
695 1 -1.1104 9.33026 24.7493 0.966914
696 2 2.2208 8.07935 23.3487 2.42731
697 2 2.2208 8.00624 29.0541 2.34356
698 1 -1.1104 9.483 24.8419 3.80526
699 2 2.2208 8.02983 26.2718 5.26257
700 1 -1.1104 9.3814 22.0391 0.993009
701 1 -1.1104 9.51711 27.6848 1.01698
702 1 -1.1104 9.46827 22.0592 3.73277
703 1 -1.1104 9.39441 27.6534 3.77482
835 1 -1.1104 12.1955 27.556 6.59359
834 1 -1.1104 12.1017 21.9551 6.73288
836 1 -1.1104 9.4004 24.8115 6.67188
728 1 -1.1104 12.2537 41.5678 9.36344
833 1 -1.1104 12.2316 24.7647 6.69761
837 1 -1.1104 9.40693 21.9776 6.61042
1365 1 -1.1104 9.29734 47.3083 0.8604
707 2 2.2208 5.25009 34.7934 5.18072
708 1 -1.1104 1.07264 30.6419 0.904555
709 1 -1.1104 1.01888 36.111 0.987744
711 1 -1.1104 1.03627 30.6668 3.74156
712 1 -1.1104 0.799293 36.1832 3.77302
714 1 -1.1104 0.85783 33.4784 0.957893
715 2 2.2208 5.17643 32.0846 2.41193
716 2 2.2208 5.13584 37.575 2.44576
717 1 -1.1104 1.03875 33.4213 3.72387
719 1 -1.1104 3.71401 30.6576 0.879969
720 1 -1.1104 3.74698 36.1521 0.906248
721 2 2.2208 2.38719 34.8427 2.34289
722 1 -1.1104 3.90658 30.6372 3.64378
723 1 -1.1104 3.79818 36.2265 3.62793
724 2 2.2208 2.37227 31.9288 5.14395
725 2 2.2208 2.423 37.5894 5.2574
726 1 -1.1104 3.68689 33.4784 0.869551
727 1 -1.1104 3.77375 33.3925 3.78453
731 1 -1.1104 6.70237 30.5242 0.994646
857 1 -1.1104 0.883764 30.4994 6.52469
863 1 -1.1104 3.75252 30.4019 6.43649
733 1 -1.1104 6.58462 33.4643 1.00019
732 1 -1.1104 6.41356 30.5771 3.815
710 1 -1.1104 6.4082 36.0665 0.993997
713 1 -1.1104 6.72039 36.0548 3.73887
773 1 -1.1104 3.77712 38.931 1.07256
865 1 -1.1104 3.79262 33.2759 6.51341
862 1 -1.1104 6.509 33.3 6.4311
858 1 -1.1104 1.21171 36.0337 6.50678
861 1 -1.1104 1.02 33.1562 6.53583
864 1 -1.1104 3.94664 36.0364 6.53689
859 1 -1.1104 6.55088 30.5153 6.57826
951 1 -1.1104 9.22867 44.3223 9.07514
718 1 -1.1104 6.54972 33.3637 3.75001
734 2 2.2208 10.8293 34.687 5.04835
735 1 -1.1104 12.2288 30.3174 1.05356
736 1 -1.1104 12.2089 35.9646 0.950464
737 1 -1.1104 12.2133 30.4915 3.83241
738 1 -1.1104 12.2277 35.9982 3.61527
739 1 -1.1104 12.1713 33.223 0.741218
740 2 2.2208 10.8281 31.8834 2.29719
741 2 2.2208 10.9569 37.4571 2.24309
742 1 -1.1104 12.3365 33.1925 3.65631
743 1 -1.1104 9.33943 30.4686 1.01549
744 1 -1.1104 9.29654 36.1437 0.908911
745 2 2.2208 8.0391 34.7726 2.27886