ITEM: TIMESTEP
80000
ITEM: NUMBER OF ATOMS
17760
ITEM: BOX BOUNDS pp pp pp
-3.7363578588899149e-01 2.7713635785888130e+01
-4.4368734711710456e+00 3.3251687347117337e+02
-3.7217716395702577e-01 2.7712177163957548e+01
ITEM: ATOMS id type q x y z
1 2 2.2208 5.2999 1.1274 5.2911
2 1 -1.1104 1.03936 -3.04198 0.91654
3 1 -1.1104 0.989613 2.53667 1.09135
6 1 -1.1104 1.1504 -3.16539 3.71381
7 1 -1.1104 0.975804 2.38447 3.75032
10 1 -1.1104 0.959986 -0.169272 1.03278
12 2 2.2208 5.32298 -1.64777 2.33663
13 2 2.2208 5.3665 3.92676 2.42569
14 1 -1.1104 1.13854 -0.445986 3.80288
16 1 -1.1104 3.85765 -3.03308 1.13708
17 1 -1.1104 3.8337 2.48439 1.0171
18 2 2.2208 2.51431 1.10276 2.49339
19 1 -1.1104 4.00894 -2.9074 3.94354
20 1 -1.1104 3.82264 2.52585 3.8854
21 2 2.2208 2.47628 -1.69629 5.16316
23 1 -1.1104 3.85289 -0.230178 1.08285
24 1 -1.1104 4.02624 -0.200752 3.88377
22 2 2.2208 2.4638 3.95896 5.29375
15 1 -1.1104 6.7184 -0.307478 3.70532
170 1 -1.1104 1.18514 -0.344153 6.56377
4 1 -1.1104 6.70238 -3.18986 1.06325
9221 2 2.2208 -0.262043 3.89929 2.38252
173 1 -1.1104 3.83616 2.5808 6.59704
204 2 2.2208 -0.184822 -4.39135 10.8947
167 1 -1.1104 1.096 2.49574 6.72238
169 1 -1.1104 6.57686 2.54548 6.74416
9217 2 2.2208 -0.319891 -1.64938 2.4386
9267 2 2.2208 -0.294117 9.59677 13.7104
317 2 2.2208 8.14729 20.8857 -0.339359
311 2 2.2208 2.49975 15.1412 -0.341775
8947 2 2.2208 13.7307 9.62341 5.25056
9147 2 2.2208 -0.32706 9.51227 7.99761
5 1 -1.1104 6.70941 2.4604 1.06094
8 1 -1.1104 6.87974 -3.14437 3.76549
9 1 -1.1104 6.70348 2.60421 3.92299
11 1 -1.1104 6.71412 -0.422466 0.993842
31 2 2.2208 10.8403 0.992576 5.12815
32 1 -1.1104 12.3273 -3.14736 1.01502
33 1 -1.1104 12.2923 2.59245 1.00489
34 1 -1.1104 12.5833 -3.15199 3.73055
35 1 -1.1104 12.2879 2.45236 3.87323
36 1 -1.1104 12.4105 -0.407788 0.971107
37 2 2.2208 11.0324 -1.69582 2.40183
39 1 -1.1104 12.2892 -0.333952 3.88106
40 1 -1.1104 9.63613 -3.10148 0.931275
41 1 -1.1104 9.45717 2.4964 1.07552
42 2 2.2208 8.10332 1.05996 2.43286
43 1 -1.1104 9.74824 -3.09685 3.77377
44 1 -1.1104 9.56956 2.33843 3.79224
45 2 2.2208 8.12768 -1.64576 5.18165
47 1 -1.1104 9.35263 -0.262726 0.879269
48 1 -1.1104 9.53007 -0.263269 3.70585
38 2 2.2208 10.9244 3.93425 2.50104
46 2 2.2208 8.01051 3.88438 5.24174
205 1 -1.1104 12.3005 -3.23462 6.54095
206 1 -1.1104 12.2745 2.37954 6.66474
210 1 -1.1104 9.45624 -0.331702 6.69328
288 1 -1.1104 6.56156 19.3503 9.3571
208 1 -1.1104 9.6635 -3.12593 6.69683
30 1 -1.1104 12.3038 13.8419 9.46597
168 1 -1.1104 6.83229 -3.08391 6.49447
171 1 -1.1104 6.8051 -0.336247 6.53152
9233 2 2.2208 -0.30782 17.9068 5.32661
9260 2 2.2208 13.6559 12.415 13.699
9227 2 2.2208 -0.27285 9.55193 2.3758
54 2 2.2208 5.15605 6.71857 5.23908
55 2 2.2208 5.209 12.4752 5.26681
56 1 -1.1104 1.12756 8.05879 0.995971
58 1 -1.1104 0.943609 8.0239 3.80726
60 1 -1.1104 1.08112 5.3595 1.08017
61 1 -1.1104 1.11741 10.9073 1.01345
66 2 2.2208 5.41391 9.56291 2.46145
67 1 -1.1104 1.13894 5.27756 3.81359
68 1 -1.1104 1.2524 10.8152 3.73528
71 1 -1.1104 4.00893 8.0938 0.932172
72 2 2.2208 2.56455 6.7454 2.48915
73 2 2.2208 2.46908 12.4025 2.47005
74 1 -1.1104 3.8137 8.21518 3.78955
75 2 2.2208 2.4157 9.60866 5.22142
76 1 -1.1104 3.84504 5.21726 0.965672
77 1 -1.1104 3.90702 10.9211 0.97424
79 1 -1.1104 3.8887 5.3409 3.82547
80 1 -1.1104 4.03687 11.1497 3.7804
62 1 -1.1104 1.10575 11.0155 6.55062
236 1 -1.1104 1.14001 5.31149 6.55831
65 1 -1.1104 6.62514 10.9766 6.6699
238 1 -1.1104 3.86805 8.21889 6.63447
234 1 -1.1104 0.971426 8.22218 6.49146
313 2 2.2208 2.55713 20.8044 -0.215685
239 1 -1.1104 3.76331 5.27421 6.517
200 1 -1.1104 9.41006 16.5917 9.4151
9234 2 2.2208 13.6096 17.9006 2.37776
70 1 -1.1104 6.68643 10.97 3.86231
237 1 -1.1104 6.59053 5.31904 6.58832
63 1 -1.1104 6.65919 5.25147 1.12395
59 1 -1.1104 6.61032 8.05529 3.83806
64 1 -1.1104 6.67834 10.8825 1.05851
69 1 -1.1104 6.73151 5.29005 3.90717
57 1 -1.1104 6.77753 7.97907 0.900712
84 2 2.2208 10.8867 6.78285 5.09832
85 2 2.2208 10.8461 12.3431 5.25343
86 1 -1.1104 12.3878 8.06413 1.0772
87 1 -1.1104 12.271 8.05919 3.8872
88 1 -1.1104 12.3499 5.30054 1.05962
89 1 -1.1104 12.4272 10.843 1.06244
91 2 2.2208 10.9078 9.54366 2.40225
92 1 -1.1104 12.4415 5.28402 3.7919
93 1 -1.1104 12.3033 10.9785 3.92951
94 1 -1.1104 9.56038 8.23551 1.05968
95 2 2.2208 8.09644 6.6371 2.48031
96 2 2.2208 8.07888 12.3546 2.51523
97 1 -1.1104 9.49026 8.13841 3.69617
98 2 2.2208 8.10463 9.60344 5.31196
99 1 -1.1104 9.51936 5.26791 0.914937
100 1 -1.1104 9.37023 11.004 1.06345
102 1 -1.1104 9.6691 5.30186 3.76783
103 1 -1.1104 9.3651 11.0747 3.93666
265 1 -1.1104 12.3824 8.22421 6.68766
101 1 -1.1104 9.45954 11.0856 6.66825
266 1 -1.1104 12.2585 5.157 6.55476
50 1 -1.1104 12.1711 16.5228 12.4173
199 1 -1.1104 9.2098 16.5235 12.4185
106 2 2.2208 5.18791 17.9601 5.23807
107 1 -1.1104 1.12903 13.7545 1.11073
109 1 -1.1104 0.843284 19.3265 1.05258
113 1 -1.1104 0.972628 13.6299 3.82443
114 1 -1.1104 1.02538 19.2593 3.9225
116 1 -1.1104 0.923233 16.4537 1.0207
119 2 2.2208 5.1866 15.1266 2.63524
120 2 2.2208 5.435 20.6605 2.47602
121 1 -1.1104 1.07471 16.5905 3.79575
123 1 -1.1104 4.03536 13.657 1.0344
125 1 -1.1104 3.76312 19.4179 1.08491
127 2 2.2208 2.32505 17.9045 2.37956
128 1 -1.1104 3.6143 13.7599 3.81945
129 1 -1.1104 4.00415 19.3788 3.85441
130 2 2.2208 2.3423 15.1747 5.27607
131 2 2.2208 2.31102 20.7177 5.29592
132 1 -1.1104 3.79555 16.5715 1.19384
134 1 -1.1104 3.79829 16.5866 3.934
133 1 -1.1104 3.8295 16.4198 6.75963
139 1 -1.1104 6.8242 19.1956 3.78002
110 1 -1.1104 6.64342 13.6957 1.17325
138 1 -1.1104 6.75931 19.5757 0.980493
122 1 -1.1104 6.50826 16.4879 3.92825
108 1 -1.1104 1.01144 13.7409 6.56292
9129 2 2.2208 13.6697 6.72465 7.99754
112 1 -1.1104 6.65095 19.453 6.56969
104 1 -1.1104 9.60746 19.2905 12.5034
115 1 -1.1104 6.51701 13.8322 4.09499
140 1 -1.1104 6.54665 16.6254 1.31767
118 1 -1.1104 6.64261 16.6362 6.67576
141 2 2.2208 10.7778 17.9853 5.3005
142 1 -1.1104 12.4535 13.7039 1.04565
144 1 -1.1104 12.2703 19.4501 0.971362
146 1 -1.1104 12.3031 13.7482 3.7765
147 1 -1.1104 12.3458 19.4697 3.83546
148 1 -1.1104 12.1982 16.559 0.941902
150 2 2.2208 10.8564 15.0963 2.4645
151 2 2.2208 10.9086 20.8238 2.40317
152 1 -1.1104 12.0923 16.5385 3.87771
153 1 -1.1104 9.61301 13.644 1.22945
155 1 -1.1104 9.49533 19.3063 1.08547
157 2 2.2208 8.09171 17.9195 2.39419
158 1 -1.1104 9.41694 13.8127 3.87349
159 1 -1.1104 9.48505 19.3732 3.75879
160 2 2.2208 8.13221 15.1816 5.30038
161 2 2.2208 8.159 20.7436 5.29861
162 1 -1.1104 9.34522 16.4125 1.07575
164 1 -1.1104 9.48741 16.6908 3.92081
154 1 -1.1104 9.42396 13.6676 6.6273
149 1 -1.1104 12.2445 16.5289 6.78424
145 1 -1.1104 12.2874 19.1924 6.58397
26 1 -1.1104 12.2656 13.7403 12.4992
325 2 2.2208 10.8453 9.57166 13.6321
156 1 -1.1104 9.57383 19.3457 6.71693
143 1 -1.1104 12.3355 13.8751 6.64852
163 1 -1.1104 9.44506 16.5637 6.70596
309 2 2.2208 -0.0866131 -1.66639 13.6439
166 1 -1.1104 1.06441 -3.06634 6.48695
9231 2 2.2208 -0.326707 15.0146 2.51056
172 1 -1.1104 4.00554 -3.21364 6.59923
174 1 -1.1104 3.92719 -0.447323 6.63654
175 2 2.2208 5.32492 1.12802 10.9191
176 1 -1.1104 1.18031 -3.11393 12.2937
177 1 -1.1104 1.21394 2.55741 12.1491
180 1 -1.1104 1.1597 -3.03892 9.44598
181 1 -1.1104 1.01523 2.73193 9.55423
184 1 -1.1104 1.28207 -0.470151 12.2649
186 2 2.2208 5.39808 -1.89924 7.90508
188 1 -1.1104 1.16718 -0.296711 9.49698
190 1 -1.1104 3.87547 -3.05517 12.3155
191 1 -1.1104 3.92873 2.53191 12.2978
192 2 2.2208 2.5714 1.08322 7.98691
193 1 -1.1104 3.88574 -3.35188 9.42931
194 1 -1.1104 3.89818 2.51119 9.46621
195 2 2.2208 2.68786 -1.75773 10.6677
197 1 -1.1104 4.02761 -0.302463 12.1666
198 1 -1.1104 4.04219 -0.43348 9.3187
196 2 2.2208 2.56599 3.97765 10.8031
187 2 2.2208 5.34916 3.9858 8.04925
178 1 -1.1104 6.75462 -3.25202 12.2891
9228 2 2.2208 -0.348302 12.3021 5.20901
319 2 2.2208 10.899 -1.63259 13.579
9148 2 2.2208 -0.296257 6.73275 10.9275
209 1 -1.1104 9.44902 2.52686 6.6263
315 2 2.2208 5.29587 3.91601 13.6364
207 1 -1.1104 12.2649 -0.336887 6.55008
185 1 -1.1104 6.73247 -0.385403 12.2888
179 1 -1.1104 6.78644 2.48118 12.2415
182 1 -1.1104 6.63507 -3.37706 9.32531
183 1 -1.1104 6.80133 2.34063 9.41493
189 1 -1.1104 6.78641 -0.586318 9.49258
211 2 2.2208 10.8513 1.1204 10.8936
212 1 -1.1104 12.4808 -3.12694 12.0914
213 1 -1.1104 12.2106 2.50461 12.2807
214 1 -1.1104 12.4188 -3.12864 9.42306
215 1 -1.1104 12.4156 2.34643 9.40762
216 1 -1.1104 12.4202 -0.368201 12.091
217 2 2.2208 11.0288 -1.75473 8.03034
218 2 2.2208 10.9528 3.84546 7.95982
219 1 -1.1104 12.454 -0.521966 9.3491
220 1 -1.1104 9.6063 -3.12141 12.2687
221 1 -1.1104 9.46733 2.39314 12.2465
222 2 2.2208 8.13066 0.991804 8.08829
223 1 -1.1104 9.53538 -3.04637 9.60054
224 1 -1.1104 9.51832 2.57052 9.54281
225 2 2.2208 8.14894 -1.7357 10.8533
227 1 -1.1104 9.50782 -0.245482 12.459
228 1 -1.1104 9.6039 -0.25258 9.51259
226 2 2.2208 8.11426 3.82522 10.9743
137 2 2.2208 7.92644 15.1259 10.9088
327 2 2.2208 2.30534 18.089 13.6742
78 1 -1.1104 3.83907 11.072 6.65688
9140 2 2.2208 -0.258094 12.3296 10.8001
105 2 2.2208 8.01262 18.0289 8.08709
240 2 2.2208 5.36818 6.85616 10.9351
241 2 2.2208 5.19024 12.1808 10.9169
242 1 -1.1104 1.17058 8.12903 12.3613
244 1 -1.1104 1.11202 8.29362 9.30169
246 1 -1.1104 1.14359 5.42582 12.2992
247 1 -1.1104 1.01547 11.0028 12.2417
250 2 2.2208 5.34481 9.5642 8.13344
251 1 -1.1104 1.1905 5.43034 9.4361
252 1 -1.1104 1.18475 10.9474 9.38856
255 1 -1.1104 3.84078 8.27512 12.2346
256 2 2.2208 2.45711 6.84936 7.98258
257 2 2.2208 2.45035 12.4624 8.01251
258 1 -1.1104 3.93652 8.11045 9.40342
259 2 2.2208 2.43457 9.60798 10.8541
260 1 -1.1104 3.90763 5.45895 12.1533
261 1 -1.1104 3.8488 11.0243 12.2493
262 1 -1.1104 3.9889 5.40975 9.48071
263 1 -1.1104 3.85461 10.9407 9.45412
9236 2 2.2208 -0.328691 -1.73134 8.07081
323 2 2.2208 2.43152 12.3061 13.6781
9218 2 2.2208 13.5735 15.2313 10.8722
235 1 -1.1104 6.74418 8.02208 6.64886
269 1 -1.1104 9.57052 5.21946 6.5156
27 1 -1.1104 12.3923 19.4092 12.4047
245 1 -1.1104 6.63867 8.14946 9.53644
243 1 -1.1104 6.75281 8.0904 12.2425
248 1 -1.1104 6.89118 5.24546 12.3464
249 1 -1.1104 6.69598 10.7319 12.4792
254 1 -1.1104 6.75587 10.9614 9.43813
253 1 -1.1104 6.65106 5.42112 9.56274
267 1 -1.1104 9.43917 8.0938 6.58222
90 1 -1.1104 12.2433 11.0367 6.66402
264 1 -1.1104 9.55443 10.9382 9.54431
268 1 -1.1104 9.37086 5.27362 9.45711
270 1 -1.1104 9.47755 11.1133 12.1826
271 1 -1.1104 9.6201 5.23626 12.2189
272 2 2.2208 8.0385 9.58217 10.8893
273 1 -1.1104 9.43156 8.09437 9.22647
274 2 2.2208 8.09611 12.4389 8.23442
275 2 2.2208 8.01213 6.64853 8.01262
276 2 2.2208 10.9165 6.71544 10.7727
277 2 2.2208 10.8845 12.2887 10.9232
278 1 -1.1104 12.3571 8.05645 12.2042
279 1 -1.1104 12.2913 8.10253 9.42545
280 1 -1.1104 12.4242 5.33639 12.2203
281 1 -1.1104 12.2519 10.9288 12.3092
282 2 2.2208 10.884 9.55572 8.03976
283 1 -1.1104 12.2072 5.37017 9.39576
284 1 -1.1104 12.3381 11.0504 9.35673
285 1 -1.1104 9.57162 8.07421 12.2103
81 2 2.2208 10.9854 20.6846 8.05235
289 1 -1.1104 6.65305 16.6431 9.59309
8918 2 2.2208 13.5571 3.84574 5.10831
201 2 2.2208 -0.287884 1.09743 10.7398
9235 2 2.2208 -0.310958 4.07192 8.0697
124 1 -1.1104 3.90479 13.7107 6.62879
302 1 -1.1104 0.921624 19.3725 6.76648
117 1 -1.1104 1.07158 16.5862 6.76291
111 1 -1.1104 6.66682 13.7768 6.89078
135 1 -1.1104 9.51319 13.8115 9.53737
126 1 -1.1104 3.71732 19.3045 6.6758
165 2 2.2208 8.00594 20.8387 10.7877
306 1 -1.1104 6.4231 16.7696 12.3434
297 1 -1.1104 6.6788 13.8424 12.3624
229 2 2.2208 2.35799 15.2954 10.8504
230 2 2.2208 2.30116 20.7532 10.8912
233 1 -1.1104 3.60732 16.6037 12.3477
286 1 -1.1104 3.76792 19.3303 12.179
287 1 -1.1104 3.88892 13.7409 12.2777
291 1 -1.1104 0.845404 19.4883 9.57564
292 1 -1.1104 1.03918 16.7931 9.54316
293 2 2.2208 5.23468 20.8439 7.98449
294 1 -1.1104 1.0638 13.9016 9.29975
295 2 2.2208 5.2065 15.1243 8.07636
298 1 -1.1104 0.886479 19.5289 12.3237
299 1 -1.1104 1.11058 13.889 12.2957
300 2 2.2208 5.13194 17.9858 11.0167
301 1 -1.1104 3.75709 19.3684 9.52173
303 2 2.2208 2.449 18.0048 8.14322
304 1 -1.1104 3.7885 16.5689 9.60226
305 1 -1.1104 3.83656 13.7948 9.44496
307 1 -1.1104 0.739714 16.755 12.3029
290 1 -1.1104 6.59761 13.6474 9.68863
296 1 -1.1104 6.66653 19.4063 12.2207
83 1 -1.1104 9.40814 13.7893 12.2872
82 1 -1.1104 12.2165 16.5805 9.61822
49 1 -1.1104 12.3846 19.2087 9.62686
136 1 -1.1104 9.51973 19.3681 9.45097
25 2 2.2208 10.848 17.911 10.9905
53 2 2.2208 10.8669 15.2003 8.09958
9016 2 2.2208 13.5294 15.2761 5.18753
321 2 2.2208 2.54726 6.78571 13.597
328 2 2.2208 5.22655 20.7462 13.6652
326 2 2.2208 8.04394 12.4 13.5609
308 2 2.2208 8.051 15.0923 -0.333376
342 2 2.2208 10.8492 6.65766 -0.294215
9250 2 2.2208 -0.309931 6.75571 -0.347706
9253 2 2.2208 -0.240145 12.3826 -0.332303
333 2 2.2208 5.21751 1.18138 -0.365886
344 2 2.2208 5.33698 12.3338 -0.273377
337 2 2.2208 8.21481 -1.74405 -0.364564
340 2 2.2208 10.854 12.3625 -0.297667
336 2 2.2208 10.9751 1.21987 -0.315774
312 2 2.2208 5.2977 18.0457 -0.272871
343 2 2.2208 2.63082 9.41389 -0.339211
345 2 2.2208 5.26222 1.08408 16.446
346 1 -1.1104 1.07481 -3.01695 17.8346
347 1 -1.1104 1.14174 2.45369 17.9165
350 1 -1.1104 1.23229 -3.0173 15.1679
352 1 -1.1104 1.08516 2.55604 15.0127
358 1 -1.1104 1.0779 -0.312401 18.0265
360 2 2.2208 5.23653 -1.64793 19.2498
362 1 -1.1104 1.11678 -0.270065 15.1102
366 1 -1.1104 3.98645 -3.24835 17.8
367 1 -1.1104 3.80781 2.54207 17.7785
368 2 2.2208 2.47636 1.14439 19.3275
369 1 -1.1104 4.03327 -3.30015 15.1461
371 1 -1.1104 3.85833 2.60961 14.9693
373 2 2.2208 2.44524 -1.65528 16.5706
375 1 -1.1104 3.80634 -0.305462 17.8879
376 1 -1.1104 3.88521 -0.285344 14.9497
374 2 2.2208 2.43305 3.90657 16.4669
361 2 2.2208 5.22676 3.88044 19.2318
351 1 -1.1104 1.20495 -3.19091 20.6429
363 1 -1.1104 0.883144 -0.249 20.7352
354 1 -1.1104 6.75655 -3.10548 15.0487
377 1 -1.1104 3.82571 -0.323658 20.7328
353 1 -1.1104 1.17894 2.52531 20.7223
9365 2 2.2208 -0.255659 3.97024 19.3159
9509 2 2.2208 -0.301012 18.0467 16.5931
607 2 2.2208 10.9277 -4.39037 22.0766
372 1 -1.1104 3.94321 2.53533 20.7801
577 2 2.2208 5.3766 -4.42746 27.6282
9438 2 2.2208 -0.240612 6.73682 16.4841
9403 2 2.2208 -0.333577 12.3665 16.3389
356 1 -1.1104 6.7235 2.47686 15.1004
364 1 -1.1104 6.60997 -0.299644 15.1783
349 1 -1.1104 6.65785 2.41 17.9864
359 1 -1.1104 6.71783 -0.401375 18.0197
348 1 -1.1104 6.85002 -3.24893 17.7062
355 1 -1.1104 6.65786 -3.0616 20.6198
357 1 -1.1104 6.64942 2.51181 20.7041
388 2 2.2208 10.9711 0.894791 16.4994
389 1 -1.1104 12.3306 -3.04304 17.827
390 1 -1.1104 12.2213 2.44253 17.8561
391 1 -1.1104 12.381 -3.24356 15.0841
393 1 -1.1104 12.2298 2.42227 15.0736
395 1 -1.1104 12.397 -0.28352 17.8134
396 2 2.2208 10.9502 -1.73996 19.2415
398 1 -1.1104 12.4799 -0.393819 15.0615
400 1 -1.1104 9.57164 -3.16237 17.8725
401 1 -1.1104 9.49156 2.44235 18.0324
402 2 2.2208 8.07076 1.05202 19.3945
403 1 -1.1104 9.61032 -3.15044 14.9804
405 1 -1.1104 9.56912 2.45646 15.1657
407 2 2.2208 8.17928 -1.78388 16.3836
409 1 -1.1104 9.43021 -0.395674 17.9785
410 1 -1.1104 9.47459 -0.373536 15.0666
408 2 2.2208 8.22021 3.82046 16.5083
397 2 2.2208 10.9657 3.82958 19.3511
399 1 -1.1104 12.2998 -0.189569 20.65
411 1 -1.1104 9.58518 -0.169306 20.6801
392 1 -1.1104 12.2663 -3.01071 20.6627
406 1 -1.1104 9.34178 2.44174 20.7186
394 1 -1.1104 12.2468 2.59044 20.6871
404 1 -1.1104 9.45669 -3.08383 20.6206
9322 2 2.2208 13.6753 3.80648 16.4255
9400 2 2.2208 -0.276606 -1.57331 24.8888
421 2 2.2208 5.28415 6.80293 16.4482
422 2 2.2208 5.18635 12.3239 16.5031
423 1 -1.1104 1.04126 8.15072 17.9728
425 1 -1.1104 1.0601 8.13406 15.1493
429 1 -1.1104 1.05591 5.31208 17.8446
430 1 -1.1104 1.02587 10.9713 17.9095
433 2 2.2208 5.3863 9.6047 19.2643
434 1 -1.1104 1.09585 5.24044 14.97
436 1 -1.1104 1.17536 10.9377 15.0716
442 1 -1.1104 3.9179 8.10572 17.9469
443 2 2.2208 2.43834 6.72729 19.3804
444 2 2.2208 2.48434 12.2742 19.37
445 1 -1.1104 3.89248 8.17599 15.0285
447 2 2.2208 2.41809 9.56589 16.4412
448 1 -1.1104 3.91507 5.27403 17.6765
449 1 -1.1104 3.83287 11.0934 17.8674
450 1 -1.1104 3.9637 5.34758 14.9197
452 1 -1.1104 3.96277 10.9825 15.0864
437 1 -1.1104 1.19564 11.004 20.7243
435 1 -1.1104 1.13121 5.29582 20.7146
451 1 -1.1104 3.97296 5.27111 20.6802
426 1 -1.1104 1.06104 8.0506 20.6815
446 1 -1.1104 3.92962 8.2038 20.758
581 1 -1.1104 12.3693 19.4833 26.3986
9367 2 2.2208 -0.326319 9.59023 24.8991
438 1 -1.1104 6.68696 5.30902 14.9858
440 1 -1.1104 6.65338 11.098 15.1457
427 1 -1.1104 6.64725 8.39401 15.0931
428 1 -1.1104 6.67134 8.19992 20.7614
424 1 -1.1104 6.79343 8.16322 17.7798
432 1 -1.1104 6.55322 10.9528 17.9499
431 1 -1.1104 6.58269 5.33379 17.8085
457 2 2.2208 10.7485 6.71828 16.5382
458 2 2.2208 10.8168 12.347 16.5973
459 1 -1.1104 12.3632 8.08054 17.9556
460 1 -1.1104 12.2587 8.10449 14.9621
462 1 -1.1104 12.3033 5.37307 17.8862
463 1 -1.1104 12.1545 10.8338 17.8964
464 2 2.2208 10.9262 9.53635 19.3931
465 1 -1.1104 12.2183 5.33507 15.0374
467 1 -1.1104 12.278 10.8315 15.0214
469 1 -1.1104 9.55059 8.249 17.8449
470 2 2.2208 8.09243 6.69778 19.2068
471 2 2.2208 8.0757 12.3469 19.1953
472 1 -1.1104 9.38617 8.00436 15.1102
474 2 2.2208 8.0412 9.57476 16.4741
475 1 -1.1104 9.38398 5.31624 17.846
476 1 -1.1104 9.38191 10.932 17.8601
477 1 -1.1104 9.40275 5.19259 15.0972
479 1 -1.1104 9.3984 10.9976 14.9678
468 1 -1.1104 12.3868 10.9727 20.709
466 1 -1.1104 12.4624 5.36864 20.6407
480 1 -1.1104 9.52105 11.0133 20.6668
9465 2 2.2208 13.5898 18.0648 24.9577
341 2 2.2208 8.08809 9.48331 27.6379
547 2 2.2208 10.8741 17.9838 22.1265
484 2 2.2208 5.33753 18.0671 16.4811
485 1 -1.1104 1.16119 13.7356 17.7398
486 1 -1.1104 1.16474 19.3409 17.9191
489 1 -1.1104 0.893938 13.7306 15
491 1 -1.1104 0.891334 19.4308 15.0083
497 1 -1.1104 1.1817 16.5322 17.8529
499 2 2.2208 5.2502 15.2049 19.2885
500 2 2.2208 5.21914 20.8309 19.2073
501 1 -1.1104 1.058 16.7086 15.1783
505 1 -1.1104 3.8173 13.7577 17.8471
506 1 -1.1104 3.82479 19.5484 17.7877
507 2 2.2208 2.52229 17.944 19.2359
508 1 -1.1104 3.69861 13.7645 15.102
510 1 -1.1104 3.80001 19.3536 14.9117
512 2 2.2208 2.47391 15.1373 16.4271
513 2 2.2208 2.33145 20.8116 16.4276
514 1 -1.1104 3.88524 16.6368 17.9086
515 1 -1.1104 3.91697 16.648 15.2007
502 1 -1.1104 1.06438 16.5494 20.7106
511 1 -1.1104 4.01551 19.3695 20.668
516 1 -1.1104 3.86208 16.5964 20.6914
495 1 -1.1104 6.55911 19.3818 15.0731
509 1 -1.1104 4.02964 13.715 20.7006
498 1 -1.1104 6.65485 16.6262 17.8859
488 1 -1.1104 6.66315 19.4391 17.9455
9508 2 2.2208 -0.354414 15.1122 19.2224
494 1 -1.1104 6.85118 13.689 20.8087
642 1 -1.1104 9.55158 19.4151 26.311
504 1 -1.1104 6.67555 16.4864 20.6973
503 1 -1.1104 6.76753 16.5218 15.0509
493 1 -1.1104 6.49653 13.8788 15.2798
487 1 -1.1104 6.61611 13.8128 18.0422
496 1 -1.1104 6.68768 19.2756 20.7604
520 2 2.2208 10.8968 17.8569 16.5782
521 1 -1.1104 12.4393 13.7338 18.1024
522 1 -1.1104 12.429 19.3677 17.9385
523 1 -1.1104 12.2586 13.6122 15.2277
525 1 -1.1104 12.2792 19.161 15.1923
527 1 -1.1104 12.3534 16.5696 17.9053
528 2 2.2208 10.9417 15.0996 19.2552
529 2 2.2208 10.93 20.702 19.2323
530 1 -1.1104 12.2581 16.3017 15.1698
532 1 -1.1104 9.55262 13.7982 17.8098
533 1 -1.1104 9.50877 19.2556 18.0102
534 2 2.2208 8.12078 17.9471 19.4644
535 1 -1.1104 9.30535 13.6365 15.1548
537 1 -1.1104 9.41762 19.3276 15.1696
539 2 2.2208 8.05957 15.1095 16.5404
540 2 2.2208 8.09048 20.7402 16.4777
541 1 -1.1104 9.49355 16.5748 18.0253
542 1 -1.1104 9.52221 16.425 15.1946
524 1 -1.1104 12.4535 13.8247 20.7634
538 1 -1.1104 9.52925 19.229 20.7267
531 1 -1.1104 12.3661 16.6541 20.7684
543 1 -1.1104 9.55972 16.4828 20.6396
536 1 -1.1104 9.6336 13.6631 20.7048
611 1 -1.1104 9.39416 19.4573 23.4905
370 1 -1.1104 3.94483 -3.05639 20.5176
9323 2 2.2208 -0.253243 17.9371 22.139
604 2 2.2208 7.97624 20.7732 22.1275
9324 2 2.2208 -0.328991 15.1893 24.9124
383 2 2.2208 -0.203349 20.7542 24.9146
548 2 2.2208 5.27711 1.12286 21.9991
549 1 -1.1104 1.06869 -3.15831 23.4768
550 1 -1.1104 1.08987 2.48426 23.4533
553 1 -1.1104 1.14505 -2.99285 26.1211
554 1 -1.1104 0.899558 2.68858 26.4527
557 1 -1.1104 0.95798 -0.24974 23.379
559 2 2.2208 5.30527 -1.73264 24.7977
561 1 -1.1104 1.09723 -0.174181 26.2545
563 1 -1.1104 3.7513 -3.18245 23.3623
564 1 -1.1104 3.99458 2.46942 23.6569
565 2 2.2208 2.37583 1.15618 24.8319
566 1 -1.1104 3.94852 -3.25566 26.1836
567 1 -1.1104 3.89338 2.62725 26.3515
568 2 2.2208 2.4126 -1.80921 21.998
570 1 -1.1104 3.87359 -0.311876 23.3506
571 1 -1.1104 3.81975 -0.275525 26.2146
569 2 2.2208 2.43773 3.87144 22.1171
560 2 2.2208 5.31086 3.97501 24.7526
9366 2 2.2208 -0.265732 12.3833 22.1716
576 1 -1.1104 12.2416 19.4676 23.4994
602 1 -1.1104 9.47101 16.4974 26.2874
365 1 -1.1104 6.58095 -0.313998 20.7658
9328 2 2.2208 13.6028 1.14976 19.2975
612 2 2.2208 8.03312 18.0012 24.9984
562 1 -1.1104 6.54639 -0.362233 26.3719
555 1 -1.1104 6.83869 -2.9719 26.1352
558 1 -1.1104 6.72758 -0.328675 23.4487
552 1 -1.1104 6.69604 2.46984 23.4724
556 1 -1.1104 6.82422 2.46169 26.3979
551 1 -1.1104 6.613 -3.09732 23.34
584 2 2.2208 10.8491 1.19479 22.063
585 1 -1.1104 12.3763 -3.06292 23.5961
586 1 -1.1104 12.2314 2.58299 23.4743
587 1 -1.1104 12.4382 -3.09542 26.2855
588 1 -1.1104 12.3168 2.49237 26.2945
589 1 -1.1104 12.3819 -0.265478 23.4218
590 2 2.2208 10.9327 -1.72751 24.9086
592 1 -1.1104 12.5177 -0.253109 26.2843
593 1 -1.1104 9.54096 -2.95011 23.4749
594 1 -1.1104 9.4274 2.40591 23.4221
595 2 2.2208 8.13042 1.09142 24.9157
596 1 -1.1104 9.5642 -3.20221 26.2357
597 1 -1.1104 9.4753 2.63139 26.296
598 2 2.2208 8.03071 -1.58815 22.0493
600 1 -1.1104 9.52328 -0.262593 23.4898
601 1 -1.1104 9.60932 -0.24297 26.2641
591 2 2.2208 10.9954 4.06905 24.9129
599 2 2.2208 8.00867 3.94164 22.0027
610 1 -1.1104 9.5017 13.795 23.5268
526 1 -1.1104 12.4753 19.3682 20.7053
641 1 -1.1104 9.4742 13.7086 26.4851
453 1 -1.1104 4.16345 11.0349 20.6427
416 1 -1.1104 6.70387 16.6396 23.5483
9437 2 2.2208 -0.349547 9.56718 19.2498
439 1 -1.1104 6.92896 5.36861 20.5195
613 2 2.2208 5.32739 6.7741 22.1364
614 2 2.2208 5.40474 12.377 22.084
615 1 -1.1104 1.25393 8.17681 23.4182
617 1 -1.1104 1.11796 8.15757 26.2114
619 1 -1.1104 1.09939 5.32767 23.5873
620 1 -1.1104 1.0922 10.923 23.4973
623 2 2.2208 5.4622 9.52644 24.8223
624 1 -1.1104 1.13364 5.4054 26.3203
625 1 -1.1104 1.07724 10.9986 26.349
628 1 -1.1104 4.08696 8.20213 23.5011
629 2 2.2208 2.54662 6.71398 24.8573
630 2 2.2208 2.51501 12.2114 25.0292
631 1 -1.1104 3.92804 8.0345 26.2946
632 2 2.2208 2.60435 9.53494 22.1131
633 1 -1.1104 3.74196 5.28512 23.5773
634 1 -1.1104 3.9345 10.9755 23.4831
635 1 -1.1104 4.03208 5.38115 26.1784
636 1 -1.1104 3.96644 10.8274 26.1971
575 1 -1.1104 12.2781 13.8525 23.7034
518 1 -1.1104 6.40814 19.2969 23.6409
582 1 -1.1104 12.2444 16.6724 23.5346
603 1 -1.1104 9.52818 16.6277 23.5303
441 1 -1.1104 6.7612 10.967 20.7591
461 1 -1.1104 12.3619 8.10949 20.7737
621 1 -1.1104 6.56674 5.34508 23.5201
626 1 -1.1104 6.79743 5.28384 26.2329
622 1 -1.1104 6.74095 10.8933 23.4868
627 1 -1.1104 6.79999 11.0008 26.2606
478 1 -1.1104 9.63963 5.33935 20.5646
616 1 -1.1104 6.81247 8.07752 23.3709
618 1 -1.1104 6.76816 8.06926 26.2484
473 1 -1.1104 9.56227 8.10407 20.6565
637 1 -1.1104 9.54269 8.18259 23.4367
638 1 -1.1104 12.4084 11.0564 26.3311
639 1 -1.1104 12.3553 5.30532 26.2988
644 1 -1.1104 9.56286 10.8494 26.3778
645 1 -1.1104 9.57066 5.34545 26.281
646 1 -1.1104 9.63049 10.9237 23.4032
647 1 -1.1104 9.45433 5.20521 23.4774
648 2 2.2208 8.21452 9.54754 22.0457
649 1 -1.1104 9.60091 8.14042 26.3744
650 2 2.2208 8.01084 12.4101 24.8334
651 2 2.2208 8.12479 6.67734 24.8502
652 2 2.2208 11.0045 6.62849 22.0786
653 2 2.2208 11.0249 12.3472 22.1692
654 1 -1.1104 12.3002 8.03037 23.5287
655 1 -1.1104 12.4502 8.24317 26.4019
656 1 -1.1104 12.4417 5.44789 23.5593
657 1 -1.1104 12.591 10.8434 23.6111
658 2 2.2208 11.0319 9.54839 24.945
580 1 -1.1104 12.1907 13.8242 26.3544
381 2 2.2208 -0.396445 1.03272 16.5719
335 2 2.2208 2.38883 3.9553 27.6393
482 1 -1.1104 6.71991 13.8745 23.5299
334 2 2.2208 2.52782 -1.74963 27.594
490 1 -1.1104 1.03925 13.716 20.6878
492 1 -1.1104 1.02234 19.3787 20.7341
573 1 -1.1104 6.65455 13.8191 26.4814
546 1 -1.1104 6.74555 16.7201 26.5577
385 2 2.2208 2.56074 15.104 22.2644
386 2 2.2208 2.53232 20.7639 22.0861
387 1 -1.1104 3.95645 16.5386 23.6532
412 1 -1.1104 1.12656 16.458 23.5824
418 1 -1.1104 3.8661 13.7216 26.4538
419 1 -1.1104 4.01118 16.5784 26.4041
420 2 2.2208 2.41118 18.0156 24.8664
454 1 -1.1104 3.91173 19.2742 26.3609
455 2 2.2208 5.20433 17.9028 22.1365
456 1 -1.1104 1.26056 13.6344 23.5796
481 1 -1.1104 1.13873 19.3688 23.5404
483 2 2.2208 5.31024 15.1181 25.019
517 2 2.2208 5.16885 20.7765 24.9042
519 1 -1.1104 1.06868 13.7679 26.2141
544 1 -1.1104 1.11953 16.5288 26.3361
545 1 -1.1104 1.08007 19.2642 26.3701
572 1 -1.1104 4.07904 13.7378 23.6803
574 1 -1.1104 3.78056 19.3112 23.5054
9616 2 2.2208 -0.250031 6.74912 22.186
609 1 -1.1104 12.1609 16.5528 26.2684
605 2 2.2208 10.8166 20.8663 24.9181
640 1 -1.1104 6.82959 19.4959 26.4434
583 2 2.2208 10.9096 15.1598 24.9651
643 2 2.2208 8.16447 15.0865 22.0609
316 2 2.2208 10.9134 18.0501 27.7468
338 2 2.2208 8.1319 3.92532 27.7028
331 2 2.2208 10.7988 15.1714 13.7066
322 2 2.2208 5.22742 9.52553 13.7454
339 2 2.2208 5.4419 6.67199 27.6012
330 2 2.2208 10.9156 20.6978 13.8065
332 2 2.2208 8.05611 17.9116 13.8524
318 2 2.2208 7.9648 1.01327 13.7202
310 2 2.2208 5.20332 -1.83282 13.6953
329 2 2.2208 5.13334 15.2313 13.7588
9255 2 2.2208 -0.242873 3.90892 13.6785
324 2 2.2208 8.08442 6.68981 13.7476
9277 2 2.2208 -0.340216 15.2459 13.6813
320 2 2.2208 10.9203 3.96499 13.6789
314 2 2.2208 2.51109 1.11452 13.6316
659 2 2.2208 5.22999 23.5807 5.29618
660 2 2.2208 5.27659 29.2807 5.36405
661 1 -1.1104 1.05457 24.9861 1.10382
662 1 -1.1104 1.03872 24.865 3.96234
663 1 -1.1104 1.07824 22.1323 1.09022
664 1 -1.1104 1.0712 27.8101 1.25444
665 2 2.2208 5.31662 26.324 2.62017
666 1 -1.1104 0.993604 21.9764 3.76508
667 1 -1.1104 1.00707 27.79 3.82
668 1 -1.1104 3.90789 24.9919 1.1043
669 2 2.2208 2.56566 23.4401 2.60338
670 2 2.2208 2.50086 29.1221 2.64114
671 1 -1.1104 3.96707 24.9585 3.89617
672 2 2.2208 2.47632 26.4889 5.3026
673 1 -1.1104 3.89304 22.2082 1.20973
674 1 -1.1104 4.02224 27.7183 1.17969
675 1 -1.1104 3.98093 22.1543 3.90552
676 1 -1.1104 3.9602 27.6753 3.93542
802 1 -1.1104 1.0396 22.187 6.56313
681 1 -1.1104 6.73675 24.8538 3.88288
807 1 -1.1104 3.76206 22.246 6.5597
803 1 -1.1104 1.03573 27.7789 6.74025
684 1 -1.1104 6.6386 22.1546 3.84596
685 1 -1.1104 6.57639 27.9139 3.94688
801 1 -1.1104 6.52911 25.1036 6.61127
808 1 -1.1104 3.81073 27.9198 6.67713
804 1 -1.1104 6.6473 22.2218 6.62393
680 1 -1.1104 6.58766 25.1061 1.28763
683 1 -1.1104 6.81664 27.9201 1.12274
1000 2 2.2208 2.43166 32.0167 -0.209061
800 1 -1.1104 0.818285 25.0122 6.66699
806 1 -1.1104 3.69409 25.0732 6.60938
996 2 2.2208 8.07053 26.2917 -0.250871
1003 2 2.2208 8.19681 32.0337 -0.311416
682 1 -1.1104 6.70053 22.2866 1.15315
686 2 2.2208 10.9773 23.5553 5.28026
687 2 2.2208 10.9128 29.171 5.19205
688 1 -1.1104 12.2235 24.9387 1.16695
689 1 -1.1104 12.3546 24.9577 3.99467
690 1 -1.1104 12.4181 22.2008 1.00122
691 1 -1.1104 12.3221 27.7394 1.12492
692 2 2.2208 10.9241 26.3617 2.38711
693 1 -1.1104 12.4619 22.0835 3.7819
694 1 -1.1104 12.2676 27.5809 3.90149
695 1 -1.1104 9.47288 24.8523 0.902713
696 2 2.2208 8.07191 23.6288 2.44288
697 2 2.2208 8.02347 29.2271 2.5341
698 1 -1.1104 9.39173 25.0352 3.74331
699 2 2.2208 8.13188 26.4067 5.16251
700 1 -1.1104 9.48782 22.1954 1.01124
701 1 -1.1104 9.57153 27.7926 1.04272
702 1 -1.1104 9.51124 22.2183 3.85819
703 1 -1.1104 9.49374 27.654 3.80043
835 1 -1.1104 12.3559 27.8637 6.75008
834 1 -1.1104 12.4344 22.048 6.63256
838 1 -1.1104 9.44905 27.8078 6.58317
837 1 -1.1104 9.53197 22.074 6.6037
1540 1 -1.1104 9.25389 47.3365 6.35691
836 1 -1.1104 9.4265 24.97 6.55436
833 1 -1.1104 12.2226 24.91 6.79893
704 2 2.2208 10.9618 40.5213 11.1363
973 2 2.2208 10.8637 40.327 -0.406388
707 2 2.2208 5.34848 34.9222 5.3863
708 1 -1.1104 1.02716 30.6646 1.17771
709 1 -1.1104 0.939396 36.2309 1.24271
711 1 -1.1104 0.93372 30.4825 3.95403
712 1 -1.1104 1.08792 36.2196 4.06366
714 1 -1.1104 1.13415 33.4847 1.21265
715 2 2.2208 5.2021 31.8866 2.58452
716 2 2.2208 5.33325 37.68 2.5389
717 1 -1.1104 1.04815 33.4929 4.07309
719 1 -1.1104 3.7881 30.6002 1.18765
720 1 -1.1104 3.67954 36.1273 1.08045
721 2 2.2208 2.46779 34.8574 2.54684
722 1 -1.1104 3.75655 30.5127 3.99642
723 1 -1.1104 3.95391 36.1955 3.89625
724 2 2.2208 2.41665 31.9401 5.2819
725 2 2.2208 2.54981 37.6725 5.49305
726 1 -1.1104 3.96806 33.2312 1.2837
727 1 -1.1104 3.89192 33.3281 4.09173
857 1 -1.1104 1.04293 30.6023 6.59485
710 1 -1.1104 6.74249 36.2276 1.12162
718 1 -1.1104 6.61354 33.4565 3.90662
862 1 -1.1104 6.71156 33.5249 6.82314
706 1 -1.1104 12.2575 42.0322 12.5399
732 1 -1.1104 6.62672 30.6169 3.94777
733 1 -1.1104 6.84302 33.3211 1.0846
731 1 -1.1104 6.65062 30.6183 1.06505
713 1 -1.1104 6.66024 36.2619 3.86964
859 1 -1.1104 6.72969 30.6455 6.75145
858 1 -1.1104 1.13162 36.2202 6.95802
734 2 2.2208 11.175 34.7794 5.31541
735 1 -1.1104 12.266 30.649 1.03395
736 1 -1.1104 12.3305 36.2362 1.01053
737 1 -1.1104 12.2412 30.4444 3.74285
738 1 -1.1104 12.5423 36.1306 3.85678
739 1 -1.1104 12.2018 33.6032 1.11401
740 2 2.2208 11.0023 32.0832 2.56047
741 2 2.2208 10.7732 37.7822 2.29472
742 1 -1.1104 12.3204 33.3425 3.78946
743 1 -1.1104 9.47236 30.7156 1.08318
744 1 -1.1104 9.52903 36.2709 1.00631
745 2 2.2208 8.15731 34.8636 2.53485
746 1 -1.1104 9.49201 30.6515 3.81868
747 1 -1.1104 9.52038 36.1698 3.86499
748 2 2.2208 8.11157 32.1169 5.31994
749 2 2.2208 8.13089 37.7588 5.31893
750 1 -1.1104 9.69176 33.2369 1.21358
751 1 -1.1104 9.53514 33.3595 4.0272
891 1 -1.1104 12.2707 30.5949 6.59414
895 1 -1.1104 9.55242 36.2158 6.63773
953 1 -1.1104 9.40701 44.6187 12.6242
991 2 2.2208 2.55174 26.4581 -0.190938
9963 2 2.2208 -0.333885 43.2762 8.31324
893 1 -1.1104 12.3698 33.4028 6.71754