ITEM: TIMESTEP
60000
ITEM: NUMBER OF ATOMS
17760
ITEM: BOX BOUNDS pp pp pp
-3.7527378361528158e-01 2.7715273783614496e+01
-4.5011027336451237e+00 3.3258110273364957e+02
-3.6929648247536911e-01 2.7709296482475960e+01
ITEM: ATOMS id type q x y z
1 2 2.2208 5.09347 1.22225 5.32056
2 1 -1.1104 0.752203 -3.03582 1.15225
3 1 -1.1104 0.957613 2.49324 1.03047
6 1 -1.1104 1.04882 -3.01951 3.97602
7 1 -1.1104 1.06926 2.62392 3.80992
10 1 -1.1104 0.984895 -0.254764 0.911813
12 2 2.2208 5.21673 -1.63331 2.3711
13 2 2.2208 5.2948 3.94352 2.51107
14 1 -1.1104 0.869846 -0.323658 3.98972
16 1 -1.1104 3.70653 -3.05967 1.18611
17 1 -1.1104 3.76935 2.73006 1.20923
18 2 2.2208 2.38526 1.21083 2.40363
19 1 -1.1104 3.69862 -2.89727 3.97935
20 1 -1.1104 3.86479 2.5963 3.96957
21 2 2.2208 2.34612 -1.57314 5.38836
23 1 -1.1104 3.87219 -0.242014 0.903646
24 1 -1.1104 3.60469 -0.134697 3.80396
22 2 2.2208 2.32646 3.96756 5.30707
29 2 2.2208 5.10563 -4.33934 5.28697
8 1 -1.1104 6.49993 -2.90075 3.77613
11 1 -1.1104 6.72875 -0.281843 1.21035
168 1 -1.1104 6.50575 -2.94118 6.69231
83 1 -1.1104 9.26015 13.7258 12.3071
28 2 2.2208 2.32349 -4.44926 2.49078
289 1 -1.1104 6.75586 16.685 9.61046
344 2 2.2208 5.18065 12.4144 -0.0978824
26 1 -1.1104 12.1695 13.8145 12.3977
9242 2 2.2208 13.5096 -4.38895 8.1183
203 2 2.2208 5.19352 -4.44578 10.8327
231 2 2.2208 7.99986 -4.41834 8.1272
165 2 2.2208 8.1409 20.7511 10.9468
9 1 -1.1104 6.56949 2.61736 3.86872
5 1 -1.1104 6.63218 2.50108 1.19485
15 1 -1.1104 6.31798 -0.237933 3.82682
4 1 -1.1104 6.42846 -3.0241 1.08487
31 2 2.2208 10.6973 1.15623 5.41112
32 1 -1.1104 12.1127 -2.97168 0.99786
33 1 -1.1104 11.9741 2.6078 1.21979
34 1 -1.1104 12.0462 -3.019 3.86005
35 1 -1.1104 12.2882 2.73135 4.03367
36 1 -1.1104 12.1105 -0.220062 1.14349
37 2 2.2208 10.7405 -1.61012 2.43558
39 1 -1.1104 12.1025 -0.159946 3.80958
40 1 -1.1104 9.27175 -3.00479 1.09963
41 1 -1.1104 9.28694 2.60871 1.2309
42 2 2.2208 8.01398 1.09435 2.57503
43 1 -1.1104 9.337 -3.00106 3.84735
44 1 -1.1104 9.42247 2.36128 3.99265
45 2 2.2208 7.95266 -1.53898 5.17377
47 1 -1.1104 9.41156 -0.15284 0.975761
48 1 -1.1104 9.26921 -0.26399 3.86842
38 2 2.2208 10.6337 4.09977 2.55301
46 2 2.2208 7.88434 3.94248 5.32979
171 1 -1.1104 6.6292 -0.303402 6.66111
209 1 -1.1104 9.38943 2.58316 6.64832
337 2 2.2208 7.92723 -1.49826 -0.307333
52 2 2.2208 10.7337 -4.44106 5.22493
9237 2 2.2208 13.6276 1.16579 8.17473
169 1 -1.1104 6.36657 2.39924 6.68041
50 1 -1.1104 12.2103 16.6934 12.1925
9227 2 2.2208 -0.278781 9.55999 2.47054
53 2 2.2208 10.8234 15.1912 8.15054
51 2 2.2208 7.77573 -4.27871 2.475
54 2 2.2208 5.17715 6.80709 5.25459
55 2 2.2208 5.20053 12.2567 5.41799
56 1 -1.1104 0.991876 8.18461 1.03225
58 1 -1.1104 0.963517 8.07152 3.90242
60 1 -1.1104 1.04769 5.14852 1.10282
61 1 -1.1104 1.01914 11.1947 1.10838
66 2 2.2208 5.11021 9.76412 2.48324
67 1 -1.1104 1.07432 5.17117 3.90632
68 1 -1.1104 0.983573 10.8756 3.82393
71 1 -1.1104 3.88496 8.20379 1.06831
72 2 2.2208 2.43413 6.62643 2.57558
73 2 2.2208 2.39892 12.4281 2.6203
74 1 -1.1104 3.79457 8.30796 3.90961
75 2 2.2208 2.35918 9.61338 5.40959
76 1 -1.1104 3.80787 5.38174 1.17637
77 1 -1.1104 3.77935 11.1215 1.20259
79 1 -1.1104 3.9351 5.42491 3.81131
80 1 -1.1104 3.69539 10.9376 4.08697
234 1 -1.1104 1.02576 8.2606 6.78509
78 1 -1.1104 3.64511 11.0748 6.81466
63 1 -1.1104 6.77159 5.5281 0.9601
59 1 -1.1104 6.51728 8.16564 3.9675
65 1 -1.1104 6.64336 11.0429 6.75152
239 1 -1.1104 3.71402 5.33391 6.6009
57 1 -1.1104 6.61127 8.29869 1.20294
340 2 2.2208 10.7408 12.3457 -0.277673
9231 2 2.2208 -0.359717 15.1262 2.66035
8918 2 2.2208 13.5281 4.07051 5.31613
317 2 2.2208 8.0912 20.7113 -0.29186
70 1 -1.1104 6.45477 11.0443 3.99244
64 1 -1.1104 6.6325 11.0979 1.17566
69 1 -1.1104 6.60262 5.36655 3.95337
84 2 2.2208 10.6896 6.7332 5.42836
85 2 2.2208 10.7484 12.3411 5.38869
86 1 -1.1104 12.1336 8.19554 1.24301
87 1 -1.1104 12.3846 8.23992 4.0265
88 1 -1.1104 12.233 5.44393 1.03344
89 1 -1.1104 12.1934 10.9453 1.05163
91 2 2.2208 10.8284 9.66831 2.56708
92 1 -1.1104 12.0351 5.41734 3.91117
93 1 -1.1104 12.2134 11.15 3.86402
94 1 -1.1104 9.38143 8.22186 1.13861
95 2 2.2208 7.84898 6.89265 2.54898
96 2 2.2208 8.05407 12.4717 2.66185
97 1 -1.1104 9.52834 8.20637 3.86548
98 2 2.2208 8.01701 9.63201 5.28147
99 1 -1.1104 9.32614 5.61405 1.17056
100 1 -1.1104 9.38144 11.0448 1.43471
102 1 -1.1104 9.23067 5.46528 3.96548
103 1 -1.1104 9.30742 11.0118 4.0713
90 1 -1.1104 12.1899 10.8936 6.6963
269 1 -1.1104 9.29046 5.29413 6.89236
9223 2 2.2208 13.5411 1.26572 2.50835
338 2 2.2208 8.06783 3.90208 -0.264157
106 2 2.2208 5.19915 17.9621 5.32507
107 1 -1.1104 0.911087 13.7605 1.13042
109 1 -1.1104 0.961411 19.3377 1.16871
113 1 -1.1104 1.07097 13.7441 3.83007
114 1 -1.1104 1.1001 19.357 4.00599
116 1 -1.1104 1.04193 16.591 1.16231
119 2 2.2208 5.14622 15.2337 2.47712
120 2 2.2208 5.25198 20.8604 2.60804
121 1 -1.1104 1.1315 16.6396 3.92187
123 1 -1.1104 3.6013 13.9941 1.28249
125 1 -1.1104 3.78934 19.4641 1.29393
127 2 2.2208 2.48227 17.9787 2.46951
128 1 -1.1104 3.85178 13.8509 4.03154
129 1 -1.1104 3.90696 19.4257 4.15667
130 2 2.2208 2.50301 15.1586 5.29466
131 2 2.2208 2.43942 20.7822 5.39596
132 1 -1.1104 3.93013 16.5573 1.04885
134 1 -1.1104 3.82823 16.7357 3.84065
108 1 -1.1104 1.01358 13.7237 6.76978
115 1 -1.1104 6.66324 13.6734 3.95279
302 1 -1.1104 0.963666 19.198 6.71187
306 1 -1.1104 6.45034 16.4702 12.3044
335 2 2.2208 2.40505 4.02304 -0.274438
333 2 2.2208 5.14424 1.35024 -0.327479
316 2 2.2208 10.8737 17.9057 -0.214356
110 1 -1.1104 6.53284 13.9977 1.11931
138 1 -1.1104 6.54711 19.4392 1.1585
140 1 -1.1104 6.64999 16.6263 1.03925
139 1 -1.1104 6.69131 19.3141 3.85271
122 1 -1.1104 6.606 16.4162 3.81397
141 2 2.2208 10.8273 17.968 5.34946
142 1 -1.1104 12.2535 13.6664 1.19606
144 1 -1.1104 12.2764 19.3606 1.09447
146 1 -1.1104 12.2338 13.9013 4.00453
147 1 -1.1104 12.3417 19.4004 3.85135
148 1 -1.1104 12.0169 16.4227 1.01743
150 2 2.2208 10.7644 15.2414 2.64457
151 2 2.2208 10.9145 20.7051 2.4321
152 1 -1.1104 12.2809 16.6532 3.97083
153 1 -1.1104 9.42956 13.8216 1.17586
155 1 -1.1104 9.5021 19.4488 1.17625
157 2 2.2208 8.07399 17.9663 2.53984
158 1 -1.1104 9.38284 13.8614 4.03138
159 1 -1.1104 9.48128 19.4076 3.8554
160 2 2.2208 7.97017 15.3419 5.35839
161 2 2.2208 8.05579 20.9211 5.21788
162 1 -1.1104 9.38753 16.5924 1.07388
164 1 -1.1104 9.50187 16.598 4.12872
163 1 -1.1104 9.49621 16.6447 6.79873
149 1 -1.1104 12.3971 16.4543 6.65227
9134 2 2.2208 13.5735 9.59751 10.9508
172 1 -1.1104 3.83719 -2.99318 6.76593
167 1 -1.1104 0.989265 2.57692 6.80144
166 1 -1.1104 0.890553 -2.93627 6.70002
170 1 -1.1104 0.916035 -0.145254 6.67512
174 1 -1.1104 3.78781 -0.232879 6.96038
173 1 -1.1104 3.69496 2.6091 6.79714
9218 2 2.2208 13.6057 15.1243 10.7885
175 2 2.2208 5.11117 1.36323 10.9928
176 1 -1.1104 1.0129 -3.04687 12.3948
177 1 -1.1104 0.9604 2.41291 12.3135
180 1 -1.1104 0.950188 -2.98654 9.43118
181 1 -1.1104 0.877223 2.61041 9.53288
184 1 -1.1104 0.941505 -0.286355 12.2483
186 2 2.2208 5.16065 -1.55478 8.15909
188 1 -1.1104 0.975236 -0.232312 9.46128
190 1 -1.1104 3.82471 -3.13222 12.319
191 1 -1.1104 3.78357 2.68858 12.418
192 2 2.2208 2.39227 1.24656 8.10193
193 1 -1.1104 3.76042 -3.07456 9.41077
194 1 -1.1104 3.61552 2.74734 9.59531
195 2 2.2208 2.43406 -1.68246 10.9211
197 1 -1.1104 3.85097 -0.192844 12.3956
198 1 -1.1104 3.77228 -0.162503 9.62389
196 2 2.2208 2.27724 3.97798 10.9979
187 2 2.2208 5.0604 3.97195 8.09518
156 1 -1.1104 9.39846 19.3685 6.64369
179 1 -1.1104 6.50901 2.65872 12.3741
178 1 -1.1104 6.6014 -3.02601 12.222
136 1 -1.1104 9.6015 19.4389 9.57317
206 1 -1.1104 12.1571 2.58664 6.81256
205 1 -1.1104 12.2852 -2.98392 6.65985
210 1 -1.1104 9.36142 -0.325256 6.66791
342 2 2.2208 10.726 6.91227 -0.309394
232 2 2.2208 10.7615 -4.33589 10.8883
189 1 -1.1104 6.55047 -0.191818 9.43585
183 1 -1.1104 6.49143 2.51625 9.64002
208 1 -1.1104 9.35563 -3.04754 6.60747
185 1 -1.1104 6.58032 -0.211628 12.2698
207 1 -1.1104 12.161 -0.357939 6.786
182 1 -1.1104 6.63978 -3.03293 9.52965
211 2 2.2208 10.7617 1.23926 10.8701
212 1 -1.1104 12.2775 -3.08704 12.3566
213 1 -1.1104 11.9594 2.63809 12.2913
214 1 -1.1104 12.1415 -2.88327 9.42989
215 1 -1.1104 12.166 2.60944 9.57675
216 1 -1.1104 12.2263 -0.22637 12.2348
217 2 2.2208 10.6889 -1.63402 8.13017
218 2 2.2208 10.9107 4.09876 8.19138
219 1 -1.1104 12.0022 -0.0794461 9.55872
220 1 -1.1104 9.5352 -2.93001 12.4382
221 1 -1.1104 9.13614 2.62072 12.2816
222 2 2.2208 8.01955 1.14857 8.15841
223 1 -1.1104 9.31874 -2.8945 9.50867
224 1 -1.1104 9.37312 2.60875 9.44308
225 2 2.2208 7.9679 -1.50368 10.7911
227 1 -1.1104 9.34041 -0.135763 12.3116
228 1 -1.1104 9.40419 -0.103699 9.65967
226 2 2.2208 8.02189 4.04032 10.8689
9053 2 2.2208 13.5192 4.03019 10.9133
82 1 -1.1104 12.2821 16.5178 9.30952
9224 2 2.2208 13.5336 -1.57285 5.35804
9130 2 2.2208 13.6684 12.4766 8.04393
49 1 -1.1104 12.4002 19.3285 9.41511
343 2 2.2208 2.38906 9.67109 -0.225381
238 1 -1.1104 3.88193 8.09895 6.69026
62 1 -1.1104 0.955825 11.0209 6.709
236 1 -1.1104 0.994073 5.36923 6.7715
235 1 -1.1104 6.40827 8.13526 6.76792
25 2 2.2208 11.0207 18.0133 10.8332
240 2 2.2208 5.09885 6.66882 10.905
241 2 2.2208 5.22634 12.263 10.876
242 1 -1.1104 0.875056 8.09322 12.4098
244 1 -1.1104 0.96618 8.2374 9.44888
246 1 -1.1104 0.945442 5.27378 12.3231
247 1 -1.1104 0.934172 10.9019 12.3867
250 2 2.2208 5.12898 9.51904 8.08003
251 1 -1.1104 0.955316 5.36141 9.60986
252 1 -1.1104 0.819167 10.9923 9.72327
255 1 -1.1104 3.65877 8.18099 12.22
256 2 2.2208 2.34068 6.78748 8.03229
257 2 2.2208 2.45465 12.5104 8.21377
258 1 -1.1104 3.69554 8.17334 9.50755
259 2 2.2208 2.2759 9.50543 10.9284
260 1 -1.1104 3.63093 5.50196 12.3361
261 1 -1.1104 3.77468 10.8529 12.2756
262 1 -1.1104 3.74575 5.45794 9.4732
263 1 -1.1104 3.80574 11.0515 9.52195
245 1 -1.1104 6.62585 8.13291 9.40606
341 2 2.2208 8.01986 9.56551 -0.23425
313 2 2.2208 2.43912 20.7112 -0.128702
254 1 -1.1104 6.55925 10.8728 9.49067
105 2 2.2208 8.03573 18.1035 8.04292
135 1 -1.1104 9.26989 13.8694 9.53931
265 1 -1.1104 12.2216 8.16688 6.77828
266 1 -1.1104 12.1903 5.51502 6.72017
101 1 -1.1104 9.4124 10.8641 6.69149
267 1 -1.1104 9.44197 8.10668 6.80231
253 1 -1.1104 6.47886 5.21644 9.44008
243 1 -1.1104 6.47731 8.16164 12.3563
237 1 -1.1104 6.47035 5.34311 6.71521
248 1 -1.1104 6.48288 5.30384 12.349
249 1 -1.1104 6.5535 10.7977 12.2616
264 1 -1.1104 9.31237 11.0924 9.53168
268 1 -1.1104 9.3215 5.44899 9.67052
270 1 -1.1104 9.3181 11.014 12.1755
271 1 -1.1104 9.16554 5.54057 12.3281
272 2 2.2208 7.89187 9.5585 10.8908
273 1 -1.1104 9.49356 8.21066 9.50887
274 2 2.2208 7.98271 12.4142 8.08696
275 2 2.2208 7.98534 6.65453 8.12403
276 2 2.2208 10.6759 6.86411 10.9005
277 2 2.2208 10.8043 12.3758 10.9043
278 1 -1.1104 12.1344 8.26813 12.4884
279 1 -1.1104 12.1491 8.30914 9.61428
280 1 -1.1104 11.9593 5.39162 12.1965
281 1 -1.1104 12.0467 11.1283 12.443
282 2 2.2208 10.7878 9.55827 8.12926
283 1 -1.1104 12.1348 5.51845 9.5909
284 1 -1.1104 12.2443 11.0541 9.40908
285 1 -1.1104 9.34621 8.17969 12.3252
133 1 -1.1104 4.00184 16.7007 6.85762
126 1 -1.1104 3.8404 19.3944 6.8936
117 1 -1.1104 1.16547 16.3156 6.88627
9228 2 2.2208 -0.340486 12.3323 5.44069
199 1 -1.1104 9.31345 16.5548 12.3547
9016 2 2.2208 13.7051 15.1149 5.27738
124 1 -1.1104 3.96565 13.9158 6.8453
296 1 -1.1104 6.79781 19.4046 12.3495
229 2 2.2208 2.40382 15.0652 10.93
230 2 2.2208 2.50315 20.7866 11.0622
233 1 -1.1104 3.69007 16.6555 12.4826
286 1 -1.1104 3.82425 19.3002 12.3945
287 1 -1.1104 3.63601 13.8056 12.3918
291 1 -1.1104 1.11715 19.2901 9.55669
292 1 -1.1104 1.23337 16.5496 9.53174
293 2 2.2208 5.32306 20.7762 8.12443
294 1 -1.1104 1.00853 13.6591 9.50848
295 2 2.2208 5.31375 15.2369 8.29565
298 1 -1.1104 0.996255 19.2838 12.4027
299 1 -1.1104 0.914022 13.6889 12.3243
300 2 2.2208 5.34004 17.9914 10.9787
301 1 -1.1104 3.87868 19.4742 9.66362
303 2 2.2208 2.463 17.9229 8.13843
304 1 -1.1104 3.94849 16.5521 9.53224
305 1 -1.1104 3.73982 13.8024 9.59543
307 1 -1.1104 0.925338 16.4207 12.2713
288 1 -1.1104 6.71922 19.394 9.50234
8947 2 2.2208 13.6107 9.50185 5.28033
9229 2 2.2208 13.5932 12.2221 2.43747
81 2 2.2208 10.7922 20.7267 8.02996
143 1 -1.1104 12.2558 13.7149 6.83439
111 1 -1.1104 6.59014 13.9409 6.76315
145 1 -1.1104 12.1915 19.302 6.68244
154 1 -1.1104 9.38091 13.7357 6.82933
200 1 -1.1104 9.59684 16.6267 9.65093
112 1 -1.1104 6.68654 19.552 6.69564
118 1 -1.1104 6.6795 16.701 6.63136
30 1 -1.1104 12.05 13.711 9.58619
104 1 -1.1104 9.47109 19.5362 12.372
27 1 -1.1104 12.2543 19.3411 12.3334
137 2 2.2208 7.97009 15.1889 10.9157
297 1 -1.1104 6.37625 13.5515 12.2625
290 1 -1.1104 6.48747 13.7779 9.52956
9241 2 2.2208 13.5866 -1.58032 10.8878
9230 2 2.2208 13.5772 6.83329 2.59403
9225 2 2.2208 13.614 -4.41409 2.38099
9238 2 2.2208 -0.347069 15.15 8.21137
9129 2 2.2208 13.6561 6.87031 8.07691
9270 2 2.2208 13.6155 15.0594 -0.19658
308 2 2.2208 7.99816 15.3047 -0.335013
9240 2 2.2208 -0.293279 20.6392 8.08148
384 2 2.2208 2.33198 -4.43666 13.7441
319 2 2.2208 10.7508 -1.48522 13.6536
318 2 2.2208 7.88637 1.24429 13.7099
321 2 2.2208 2.20506 6.77253 13.7475
9248 2 2.2208 13.6168 9.47754 -0.234974
9269 2 2.2208 13.5946 20.6755 -0.369102
339 2 2.2208 5.08948 6.78499 -0.253463
9260 2 2.2208 13.5498 12.3929 13.7786
336 2 2.2208 10.7385 1.25317 -0.403395
311 2 2.2208 2.28232 15.1699 -0.320195
9257 2 2.2208 13.4923 -1.64255 -0.288876
312 2 2.2208 5.25112 17.975 -0.347002
330 2 2.2208 10.7632 20.7767 13.7175
309 2 2.2208 -0.38368 -1.72271 13.637
345 2 2.2208 5.07329 1.19844 16.5791
346 1 -1.1104 1.05218 -3.04183 17.9618
347 1 -1.1104 1.04047 2.59518 17.8828
350 1 -1.1104 1.06366 -3.04169 15.127
352 1 -1.1104 1.00901 2.45609 15.1263
358 1 -1.1104 0.839805 -0.19058 17.9183
360 2 2.2208 5.18699 -1.57308 19.3702
362 1 -1.1104 0.915741 -0.272401 15.1099
366 1 -1.1104 3.6984 -3.04227 18.047
367 1 -1.1104 3.80985 2.53148 18.0035
368 2 2.2208 2.47564 1.31246 19.5216
369 1 -1.1104 3.88173 -3.07001 15.1391
371 1 -1.1104 3.83212 2.52267 15.1708
373 2 2.2208 2.34263 -1.58922 16.5623
375 1 -1.1104 3.76525 -0.23299 18.0113
376 1 -1.1104 3.71259 -0.315949 15.2079
374 2 2.2208 2.29445 3.90987 16.4892
361 2 2.2208 5.18147 4.07859 19.3794
417 2 2.2208 13.5491 -4.33478 13.8152
370 1 -1.1104 3.81326 -2.95564 20.7237
351 1 -1.1104 0.998446 -3.05136 20.6598
353 1 -1.1104 0.788578 2.81346 20.7934
354 1 -1.1104 6.49125 -3.03591 15.121
349 1 -1.1104 6.53752 2.52172 17.9955
359 1 -1.1104 6.49905 -0.220364 17.8226
356 1 -1.1104 6.65264 2.75746 15.0373
364 1 -1.1104 6.5466 -0.0793968 15.0894
355 1 -1.1104 6.64236 -2.89977 20.6836
357 1 -1.1104 6.57623 2.61742 20.7273
413 2 2.2208 10.7437 -4.26365 16.456
580 1 -1.1104 12.1165 13.8966 26.4167
578 2 2.2208 5.16494 -4.39262 22.0114
9394 2 2.2208 13.6706 -4.40141 24.9604
329 2 2.2208 5.20435 15.189 13.7489
575 1 -1.1104 12.2427 13.7429 23.4806
348 1 -1.1104 6.50839 -2.96949 18.0116
388 2 2.2208 10.5858 1.25152 16.5012
389 1 -1.1104 12.2747 -2.91305 17.8517
390 1 -1.1104 12.2018 2.5955 17.9812
391 1 -1.1104 12.2327 -2.7746 15.0538
393 1 -1.1104 12.0319 2.63538 15.0979
395 1 -1.1104 12.0014 -0.0725116 17.9101
396 2 2.2208 10.8061 -1.50788 19.2578
398 1 -1.1104 12.0601 -0.0905029 15.1245
400 1 -1.1104 9.39436 -2.96867 17.854
401 1 -1.1104 9.38805 2.59143 17.9402
402 2 2.2208 7.90335 1.18968 19.384
403 1 -1.1104 9.34595 -2.86703 15.0585
405 1 -1.1104 9.27136 2.57738 15.0423
407 2 2.2208 7.90436 -1.49768 16.5544
409 1 -1.1104 9.2499 -0.215065 17.8877
410 1 -1.1104 9.33732 -0.150683 15.1923
408 2 2.2208 7.82078 4.08764 16.5553
397 2 2.2208 10.698 4.05683 19.343
414 2 2.2208 8.08368 -4.32576 19.2841
331 2 2.2208 10.6887 15.1648 13.7865
9440 2 2.2208 13.6728 -4.30701 19.061
9529 2 2.2208 13.3708 3.9072 22.1371
380 2 2.2208 2.43244 -4.37913 19.3469
421 2 2.2208 5.12613 6.74484 16.553
422 2 2.2208 5.18145 12.3716 16.6926
423 1 -1.1104 0.963569 8.33195 17.9563
425 1 -1.1104 0.690725 8.07702 15.1883
429 1 -1.1104 0.868395 5.40807 17.9851
430 1 -1.1104 0.880958 11.0425 17.9158
433 2 2.2208 5.051 9.71518 19.4114
434 1 -1.1104 0.797649 5.27094 15.3005
436 1 -1.1104 0.883903 10.9641 15.0582
442 1 -1.1104 3.7849 8.10786 18.0077
443 2 2.2208 2.27703 6.97109 19.3082
444 2 2.2208 2.28477 12.3452 19.3469
445 1 -1.1104 3.46805 8.12552 15.2612
447 2 2.2208 2.33859 9.62462 16.5702
448 1 -1.1104 3.85361 5.31234 17.9684
449 1 -1.1104 3.74305 10.9148 17.8461
450 1 -1.1104 3.57157 5.33114 15.2189
452 1 -1.1104 3.59763 10.8772 15.0774
426 1 -1.1104 0.794447 8.28245 20.705
437 1 -1.1104 0.886788 11.0364 20.7675
440 1 -1.1104 6.47694 10.7779 15.2093
453 1 -1.1104 3.65916 10.8832 20.8468
424 1 -1.1104 6.4046 8.24108 17.8479
431 1 -1.1104 6.62227 5.47017 17.8792
438 1 -1.1104 6.49169 5.41859 15.0419
427 1 -1.1104 6.45566 8.04867 15.1106
432 1 -1.1104 6.47142 11.0861 18.0968
428 1 -1.1104 6.54344 8.21088 20.8422
547 2 2.2208 10.7623 18.0595 22.1729
457 2 2.2208 10.6046 6.90766 16.6297
458 2 2.2208 10.8311 12.4457 16.5705
459 1 -1.1104 12.2056 8.22616 18.0887
460 1 -1.1104 12.0224 8.17069 15.2065
462 1 -1.1104 12.0129 5.4376 17.846
463 1 -1.1104 12.0837 11.0253 18.0761
464 2 2.2208 10.7625 9.67614 19.3845
465 1 -1.1104 12.1921 5.34134 15.0749
467 1 -1.1104 12.0786 11.0231 15.2339
469 1 -1.1104 9.39832 8.21217 18.0611
470 2 2.2208 7.78654 6.89639 19.4064
471 2 2.2208 8.00796 12.4063 19.5109
472 1 -1.1104 9.21178 8.21606 15.1317
474 2 2.2208 7.85485 9.536 16.4615
475 1 -1.1104 9.23429 5.51668 18.0121
476 1 -1.1104 9.32095 10.9049 17.8405
477 1 -1.1104 9.25906 5.44558 15.2923
479 1 -1.1104 9.27562 11.0867 15.0063
468 1 -1.1104 12.2593 11 20.6226
461 1 -1.1104 12.1133 8.18211 20.6402
379 2 2.2208 5.14774 -4.33473 16.6185
480 1 -1.1104 9.26345 11.0082 20.8201
441 1 -1.1104 6.47803 10.9241 20.8299
9258 2 2.2208 13.391 6.68682 13.7405
9328 2 2.2208 13.497 1.26987 19.2284
332 2 2.2208 7.99611 17.8794 13.7041
579 2 2.2208 2.38225 -4.40815 24.915
9322 2 2.2208 13.488 4.07656 16.4431
9467 2 2.2208 13.6793 15.203 22.0838
484 2 2.2208 5.22236 17.9941 16.579
485 1 -1.1104 0.825174 13.6 18.0026
486 1 -1.1104 0.925829 19.1796 18.0383
489 1 -1.1104 1.01308 13.7491 15.0249
491 1 -1.1104 0.934299 19.4034 15.2595
497 1 -1.1104 1.04973 16.4101 17.8764
499 2 2.2208 5.38344 15.2434 19.4166
500 2 2.2208 5.16591 20.7272 19.3592
501 1 -1.1104 0.980515 16.5485 15.1037
505 1 -1.1104 3.64047 13.6621 17.9253
506 1 -1.1104 3.84882 19.2959 17.9547
507 2 2.2208 2.49024 17.9791 19.3632
508 1 -1.1104 3.79909 13.535 15.224
510 1 -1.1104 3.96336 19.2626 15.0693
512 2 2.2208 2.44452 15.0881 16.5472
513 2 2.2208 2.39363 20.756 16.5115
514 1 -1.1104 3.88119 16.5366 18.0005
515 1 -1.1104 3.81242 16.3955 15.2683
493 1 -1.1104 6.58395 13.7487 15.1737
495 1 -1.1104 6.64187 19.4372 15.1855
492 1 -1.1104 1.00011 19.3405 20.7596
488 1 -1.1104 6.53409 19.3483 17.8229
494 1 -1.1104 6.7133 13.8205 20.9318
605 2 2.2208 10.9208 20.8301 25.0698
502 1 -1.1104 1.19938 16.4778 20.7858
516 1 -1.1104 3.91529 16.6261 20.7368
509 1 -1.1104 3.77753 13.6918 20.8892
504 1 -1.1104 6.77688 16.6691 20.7973
583 2 2.2208 10.7523 15.1729 25.0486
607 2 2.2208 10.8594 -4.42446 22.1152
487 1 -1.1104 6.61551 13.8267 17.9225
503 1 -1.1104 6.6482 16.6019 15.0513
498 1 -1.1104 6.57078 16.5477 17.9401
520 2 2.2208 10.7181 18.012 16.4432
521 1 -1.1104 12.229 13.7065 18.0109
522 1 -1.1104 12.031 19.3828 17.9255
523 1 -1.1104 12.0599 13.7785 15.1634
525 1 -1.1104 12.2723 19.2842 15.3218
527 1 -1.1104 12.3814 16.5639 17.8204
528 2 2.2208 10.9227 15.2538 19.3093
529 2 2.2208 10.8372 20.7326 19.3
530 1 -1.1104 12.1579 16.5214 14.9521
532 1 -1.1104 9.40868 13.6211 18.2582
533 1 -1.1104 9.28847 19.1372 17.7922
534 2 2.2208 8.06871 18.0203 19.2225
535 1 -1.1104 9.30176 13.7495 15.2789
537 1 -1.1104 9.39315 19.1776 15.0676
539 2 2.2208 7.94439 15.2573 16.6558
540 2 2.2208 8.0704 20.7244 16.4898
541 1 -1.1104 9.39209 16.3338 17.9044
542 1 -1.1104 9.35586 16.5281 15.0226
543 1 -1.1104 9.50778 16.603 20.6051
538 1 -1.1104 9.44495 19.2827 20.7014
526 1 -1.1104 12.3053 19.4868 20.7525
496 1 -1.1104 6.58899 19.353 20.8106
536 1 -1.1104 9.48897 13.8221 21.0178
524 1 -1.1104 12.3221 13.7631 20.7449
531 1 -1.1104 12.3846 16.6516 20.6559
323 2 2.2208 2.38139 12.3256 13.7158
609 1 -1.1104 12.2395 16.4907 26.3949
322 2 2.2208 5.05812 9.59132 13.6392
363 1 -1.1104 1.1185 -0.102189 20.6669
372 1 -1.1104 3.70075 2.59216 20.9743
377 1 -1.1104 3.84328 -0.238229 20.7359
365 1 -1.1104 6.62388 -0.114078 20.7057
612 2 2.2208 8.03087 17.9771 24.927
9247 2 2.2208 13.4235 1.2369 13.717
548 2 2.2208 5.20154 1.31569 22.2365
549 1 -1.1104 0.974838 -3.00476 23.3815
550 1 -1.1104 1.03778 2.56962 23.5915
553 1 -1.1104 0.913883 -3.05677 26.3191
554 1 -1.1104 0.945194 2.62724 26.4386
557 1 -1.1104 0.91119 -0.264545 23.4933
559 2 2.2208 5.05449 -1.65838 24.8749
561 1 -1.1104 0.855427 -0.192346 26.3062
563 1 -1.1104 3.73649 -3.07121 23.5224
564 1 -1.1104 3.76335 2.60671 23.747
565 2 2.2208 2.31126 1.10225 25.0988
566 1 -1.1104 3.63176 -3.09171 26.3157
567 1 -1.1104 3.69727 2.47797 26.4994
568 2 2.2208 2.33282 -1.55123 22.1872
570 1 -1.1104 3.64939 -0.16748 23.6074
571 1 -1.1104 3.74915 -0.280444 26.3537
569 2 2.2208 2.2373 4.01685 22.3071
560 2 2.2208 5.14644 4.13154 25.028
552 1 -1.1104 6.52395 2.67569 23.6724
551 1 -1.1104 6.55632 -2.99553 23.5221
581 1 -1.1104 12.2734 19.3955 26.4013
643 2 2.2208 7.92749 15.1831 22.2607
9465 2 2.2208 13.6923 17.9527 25.0775
327 2 2.2208 2.38075 17.8858 13.8414
610 1 -1.1104 9.20095 13.7645 23.5751
399 1 -1.1104 12.1783 -0.22968 20.7352
392 1 -1.1104 12.2599 -2.90451 20.5163
404 1 -1.1104 9.39156 -2.8039 20.6317
394 1 -1.1104 12.0923 2.62231 20.8353
608 2 2.2208 7.89982 -4.31598 24.8502
558 1 -1.1104 6.46704 -0.128635 23.548
562 1 -1.1104 6.57941 -0.218605 26.4188
603 1 -1.1104 9.58836 16.7254 23.6781
411 1 -1.1104 9.46396 -0.0695073 20.8193
406 1 -1.1104 9.32538 2.5901 20.6407
556 1 -1.1104 6.47662 2.72671 26.5151
555 1 -1.1104 6.43052 -2.9517 26.3265
584 2 2.2208 10.7631 1.23999 22.0783
585 1 -1.1104 12.2283 -2.94694 23.3097
586 1 -1.1104 12.0203 2.59886 23.6279
587 1 -1.1104 12.1626 -2.89352 26.3019
588 1 -1.1104 12.0687 2.59957 26.3531
589 1 -1.1104 12.0584 -0.248908 23.6626
590 2 2.2208 10.642 -1.62712 24.8006
592 1 -1.1104 12.1302 -0.278932 26.3788
593 1 -1.1104 9.37375 -2.93676 23.4476
594 1 -1.1104 9.24753 2.68724 23.6396
595 2 2.2208 7.89152 1.20194 24.9289
596 1 -1.1104 9.24824 -3.03498 26.3725
597 1 -1.1104 9.29604 2.63033 26.4948
598 2 2.2208 8.0424 -1.59309 22.1428
600 1 -1.1104 9.25107 -0.165392 23.4863
601 1 -1.1104 9.15539 -0.0373561 26.2855
591 2 2.2208 10.6935 3.98121 24.9527
599 2 2.2208 7.88346 4.04008 22.2115
9466 2 2.2208 13.6286 15.1494 16.4711
573 1 -1.1104 6.48507 13.8022 26.4103
602 1 -1.1104 9.29801 16.4961 26.2976
576 1 -1.1104 12.2589 19.1996 23.6978
435 1 -1.1104 1.10823 5.56103 20.8937
451 1 -1.1104 3.81326 5.48793 20.7929
446 1 -1.1104 3.68235 8.24185 20.8499
439 1 -1.1104 6.5947 5.42662 20.8716
613 2 2.2208 5.04011 6.95778 22.2555
614 2 2.2208 5.14731 12.3283 22.1561
615 1 -1.1104 0.824238 8.21104 23.6676
617 1 -1.1104 0.813584 8.35241 26.4077
619 1 -1.1104 0.95619 5.40914 23.7388
620 1 -1.1104 0.945955 11.0621 23.6875
623 2 2.2208 5.12835 9.68822 25.0108
624 1 -1.1104 1.00077 5.37669 26.4806
625 1 -1.1104 0.920181 11.0449 26.4112
628 1 -1.1104 3.54723 8.38854 23.6347
629 2 2.2208 2.28007 6.9105 25.1241
630 2 2.2208 2.38001 12.3739 25.0306
631 1 -1.1104 3.75654 8.20595 26.4917
632 2 2.2208 2.22 9.68388 22.2009
633 1 -1.1104 3.79558 5.62399 23.599
634 1 -1.1104 3.84712 11.0017 23.5976
635 1 -1.1104 3.7597 5.42553 26.4075
636 1 -1.1104 3.77003 11.0401 26.5752
621 1 -1.1104 6.49375 5.53284 23.5866
618 1 -1.1104 6.52905 8.27508 26.3667
626 1 -1.1104 6.40789 5.50519 26.3182
320 2 2.2208 10.5965 3.96233 13.7756
9325 2 2.2208 13.5766 6.80652 24.9614
9439 2 2.2208 13.5252 -1.36939 16.5156
641 1 -1.1104 9.15747 13.7889 26.4481
473 1 -1.1104 9.37222 8.31744 20.8488
604 2 2.2208 7.98789 20.8012 22.1685
627 1 -1.1104 6.60793 11.0603 26.4616
478 1 -1.1104 9.33449 5.43014 20.8549
466 1 -1.1104 12.1215 5.45238 20.668
622 1 -1.1104 6.62235 11.0856 23.6675
616 1 -1.1104 6.41697 8.39204 23.7344
637 1 -1.1104 9.29785 8.19915 23.6713
638 1 -1.1104 12.1472 10.9982 26.3862
639 1 -1.1104 12.1043 5.41169 26.4125
644 1 -1.1104 9.39211 10.9372 26.5976
645 1 -1.1104 9.23067 5.49133 26.4231
646 1 -1.1104 9.25889 11.0013 23.6147
647 1 -1.1104 9.37063 5.46675 23.651
648 2 2.2208 7.99051 9.58787 22.2572
649 1 -1.1104 9.3932 8.18239 26.4127
650 2 2.2208 7.9577 12.3788 24.9645
651 2 2.2208 7.82998 6.85276 24.987
652 2 2.2208 10.7852 6.85667 22.1566
653 2 2.2208 10.8538 12.3827 22.1341
654 1 -1.1104 12.1727 8.25269 23.6142
655 1 -1.1104 12.2166 8.16326 26.4291
656 1 -1.1104 12.2355 5.48859 23.5487
657 1 -1.1104 12.0963 10.9623 23.4754
658 2 2.2208 10.7618 9.65816 25.0127
381 2 2.2208 -0.413891 1.15603 16.6065
518 1 -1.1104 6.78158 19.3033 23.5465
582 1 -1.1104 12.1431 16.5073 23.3848
416 1 -1.1104 6.61908 16.4827 23.5508
482 1 -1.1104 6.35371 13.7633 23.645
611 1 -1.1104 9.43303 19.5523 23.5742
546 1 -1.1104 6.56591 16.5475 26.2759
640 1 -1.1104 6.67919 19.2835 26.4458
642 1 -1.1104 9.42226 19.4622 26.4282
511 1 -1.1104 3.83035 19.3842 20.9137
490 1 -1.1104 0.921328 13.7931 20.8123
385 2 2.2208 2.25882 15.192 22.2191
386 2 2.2208 2.39805 20.6995 22.1385
387 1 -1.1104 3.80333 16.5442 23.4966
412 1 -1.1104 1.02714 16.5106 23.6389
418 1 -1.1104 3.71997 13.9682 26.3879
419 1 -1.1104 3.84473 16.8164 26.3345
420 2 2.2208 2.35962 18.0178 24.9948
454 1 -1.1104 3.8385 19.3918 26.498
455 2 2.2208 5.25332 17.9014 22.273
456 1 -1.1104 0.763019 13.8326 23.5987
481 1 -1.1104 0.882547 19.318 23.5059
483 2 2.2208 5.09107 15.143 25.0061
517 2 2.2208 5.23149 20.7641 24.9831
519 1 -1.1104 0.943895 13.7524 26.4121
544 1 -1.1104 1.01186 16.5608 26.3532
545 1 -1.1104 0.91181 19.527 26.3715
572 1 -1.1104 3.51743 13.6558 23.4786
574 1 -1.1104 3.89721 19.3304 23.6585
326 2 2.2208 7.94231 12.4555 13.7198
324 2 2.2208 7.90845 6.7397 13.7453
9396 2 2.2208 13.4848 9.58963 16.5432
9398 2 2.2208 13.5962 12.3688 19.3974
9369 2 2.2208 13.5438 -1.58786 22.0668
9397 2 2.2208 13.5296 6.83886 19.3281
606 2 2.2208 10.7102 -4.42472 27.738
415 2 2.2208 7.97352 -4.29452 13.7295
9368 2 2.2208 13.5003 1.12674 24.9448
9508 2 2.2208 -0.435518 15.0787 19.2809
378 2 2.2208 -0.402815 -4.3812 16.4941
325 2 2.2208 10.6292 9.57753 13.7861
577 2 2.2208 5.16659 -4.33697 27.6674
334 2 2.2208 2.3769 -1.64052 27.6368
314 2 2.2208 2.39254 1.20356 13.8009
315 2 2.2208 5.14114 4.04911 13.7011
328 2 2.2208 5.20314 20.8108 13.7739
9254 2 2.2208 13.5749 4.03473 27.8068
9277 2 2.2208 -0.422878 15.2188 13.7372
310 2 2.2208 5.19164 -1.5654 13.6536
659 2 2.2208 5.34222 23.6572 5.40755
660 2 2.2208 5.18599 29.0459 5.23851
661 1 -1.1104 1.00958 24.9387 0.945616
662 1 -1.1104 1.15118 24.9014 3.91149
663 1 -1.1104 1.12913 22.1963 1.06644
664 1 -1.1104 0.935745 27.6272 1.1605
665 2 2.2208 5.25639 26.4697 2.46477
666 1 -1.1104 0.994042 22.0946 3.86569
667 1 -1.1104 0.838292 27.6966 3.86399
668 1 -1.1104 3.90818 25.0379 1.03579
669 2 2.2208 2.46783 23.4306 2.37648
670 2 2.2208 2.35271 29.2729 2.43108
671 1 -1.1104 4.04 25.0281 3.74244
672 2 2.2208 2.46312 26.2454 5.27959
673 1 -1.1104 3.86812 22.2206 1.08012
674 1 -1.1104 3.86058 27.9365 1.15482
675 1 -1.1104 3.85795 22.1247 3.87606
676 1 -1.1104 3.89564 27.6403 3.88558
802 1 -1.1104 1.16095 22.1036 6.68067
685 1 -1.1104 6.85405 27.8153 3.91296
683 1 -1.1104 6.72423 27.7787 1.03925
804 1 -1.1104 6.69292 22.3042 6.86298
808 1 -1.1104 3.81872 27.5472 6.70131
800 1 -1.1104 0.910831 24.8017 6.72174
803 1 -1.1104 1.05059 27.5514 6.68473
806 1 -1.1104 3.80498 24.9046 6.66148
704 2 2.2208 10.9928 40.4106 10.6492
985 2 2.2208 2.32414 40.313 13.6039
1512 1 -1.1104 6.60358 47.0503 12.0473
9963 2 2.2208 -0.362325 43.0713 7.97982
680 1 -1.1104 6.68217 24.8816 1.14486
681 1 -1.1104 6.78244 24.9804 3.88392
801 1 -1.1104 6.65136 24.9593 6.89361
682 1 -1.1104 6.63397 22.1088 1.01146
684 1 -1.1104 6.67776 22.1528 3.9839
686 2 2.2208 10.8616 23.6207 5.23074
687 2 2.2208 10.8665 29.1379 5.09139
688 1 -1.1104 12.1905 24.8562 0.916137
689 1 -1.1104 12.2387 25.0163 3.76781
690 1 -1.1104 12.2946 22.1089 1.11175
691 1 -1.1104 12.161 27.7224 0.876962
692 2 2.2208 10.7538 26.2273 2.42026
693 1 -1.1104 12.2946 22.141 3.94662
694 1 -1.1104 12.3096 27.8289 3.61816
695 1 -1.1104 9.48717 24.8811 1.00381
696 2 2.2208 8.05935 23.5077 2.46831
697 2 2.2208 8.11008 29.1841 2.45644
698 1 -1.1104 9.52599 24.8458 3.90461
699 2 2.2208 8.14965 26.3237 5.32958
700 1 -1.1104 9.44817 22.1623 0.886959
701 1 -1.1104 9.49204 27.7494 0.959996
702 1 -1.1104 9.51188 22.1193 3.63202
703 1 -1.1104 9.63395 27.6515 3.81069
834 1 -1.1104 12.1186 22.2528 6.76281
833 1 -1.1104 12.2764 25.1149 6.70202
835 1 -1.1104 12.1813 27.7827 6.5057
837 1 -1.1104 9.49332 22.211 6.55594
805 1 -1.1104 6.68629 27.7253 6.7812
9986 2 2.2208 -0.364256 43.1125 13.5425
707 2 2.2208 5.29776 34.662 5.28997
708 1 -1.1104 0.994191 30.5666 0.985949
709 1 -1.1104 1.02606 36.2112 0.977933
711 1 -1.1104 1.02312 30.509 3.83001
712 1 -1.1104 1.09853 36.1743 3.8502
714 1 -1.1104 0.95849 33.4227 1.17145
715 2 2.2208 5.22329 31.7854 2.36516
716 2 2.2208 5.31236 37.5112 2.3729
717 1 -1.1104 1.15489 33.3876 3.83921
719 1 -1.1104 3.70768 30.599 0.990866
720 1 -1.1104 3.83993 36.0904 0.874633
721 2 2.2208 2.47788 34.7335 2.31939
722 1 -1.1104 3.82216 30.5367 3.79327
723 1 -1.1104 3.87256 36.0874 3.6463
724 2 2.2208 2.41906 32.0204 5.23274
725 2 2.2208 2.494 37.4935 5.14917
726 1 -1.1104 3.76626 33.3625 0.967184
727 1 -1.1104 3.91621 33.4018 3.82069
718 1 -1.1104 6.70025 33.3373 3.79974
864 1 -1.1104 3.92169 36.0928 6.6528
865 1 -1.1104 3.80631 33.2949 6.63315
860 1 -1.1104 6.79605 36.0873 6.5924
857 1 -1.1104 1.03856 30.5153 6.53117
713 1 -1.1104 6.53872 36.1863 3.92151
732 1 -1.1104 6.699 30.531 3.76033
733 1 -1.1104 6.5672 33.2586 1.04109
731 1 -1.1104 6.62086 30.4769 1.00293
710 1 -1.1104 6.67177 36.065 0.970107
959 1 -1.1104 9.47027 41.5046 12.1378
861 1 -1.1104 0.859636 33.2487 6.52255