LAMMPS (29 Oct 2020)
OMP_NUM_THREADS environment is not set. Defaulting to 1 thread. (../comm.cpp:94)
  using 1 OpenMP thread(s) per MPI task
OMP_NUM_THREADS environment is not set. Defaulting to 1 thread. (../comm.cpp:94)
  using 1 OpenMP thread(s) per MPI task
Reading data file ...
  orthogonal box = (-0.36711561 -4.5444987 -0.3812603) to (27.707116 332.62450 27.721260)
  2 by 13 by 2 MPI processor grid
  reading atoms ...
  17760 atoms
  reading velocities ...
  17760 velocities
Finding 1-2 1-3 1-4 neighbors ...
  special bond factors lj:    0.0      0.0      0.0     
  special bond factors coul:  0.0      0.0      0.0     
     0 = max # of 1-2 neighbors
     0 = max # of 1-3 neighbors
     0 = max # of 1-4 neighbors
     1 = max # of special neighbors
  special bonds CPU = 0.005 seconds
  read_data CPU = 0.107 seconds
WARNING: 13 of 1000 force values in table Xe-Xe are inconsistent with -dE/dr.
  Should only be flagged at inflection points (../pair_table.cpp:461)
WARNING: 2 of 1000 force values in table Xe-O are inconsistent with -dE/dr.
  Should only be flagged at inflection points (../pair_table.cpp:461)
WARNING: 2 of 1000 force values in table Xe-Th are inconsistent with -dE/dr.
  Should only be flagged at inflection points (../pair_table.cpp:461)
Setting atom values ...
  11760 settings made for charge
Setting atom values ...
  5880 settings made for charge
Setting atom values ...
  120 settings made for charge
PPPM initialization ...
  using 12-bit tables for long-range coulomb (../kspace.cpp:328)
  G vector (1/distance) = 0.29874144
  grid = 40 240 40
  stencil order = 5
  estimated absolute RMS force accuracy = 0.00015624044
  estimated relative force accuracy = 1.0850298e-05
  using single precision MKL FFT
  3d grid and FFT values/proc = 18225 7600
Neighbor list info ...
  update every 1 steps, delay 0 steps, check yes
  max neighbors/atom: 2000, page size: 100000
  master list distance cutoff = 13
  ghost atom cutoff = 13
  binsize = 6.5, bins = 5 52 5
  3 neighbor lists, perpetual/occasional/extra = 3 0 0
  (1) pair coul/long, perpetual
      attributes: half, newton on
      pair build: half/bin/newton
      stencil: half/bin/3d/newton
      bin: standard
  (2) pair eam/alloy, perpetual, skip from (1)
      attributes: half, newton on
      pair build: skip
      stencil: none
      bin: none
  (3) pair table, perpetual, skip from (1)
      attributes: half, newton on
      pair build: skip
      stencil: none
      bin: none
Setting up Verlet run ...
  Unit style    : metal
  Current step  : 0
  Time step     : 0.001
Per MPI rank memory allocation (min/avg/max) = 9.600 | 9.986 | 10.03 Mbytes
Step Temp E_pair E_mol TotEng Press 
       0          600    -230322.5            0   -228945.18   -228.79749 
  100000    603.93765   -230335.38            0   -228949.02   -72.723842 
Loop time of 704.884 on 52 procs for 100000 steps with 17760 atoms

Performance: 12.257 ns/day, 1.958 hours/ns, 141.867 timesteps/s
99.8% CPU use with 52 MPI tasks x 1 OpenMP threads

MPI task timing breakdown:
Section |  min time  |  avg time  |  max time  |%varavg| %total
---------------------------------------------------------------
Pair    | 523.68     | 533.7      | 551.69     |  28.7 | 75.71
Bond    | 0.0068488  | 0.01397    | 0.020548   |   2.6 |  0.00
Kspace  | 132.84     | 149.56     | 159.97     |  53.4 | 21.22
Neigh   | 1.701      | 1.8002     | 1.9068     |   3.8 |  0.26
Comm    | 13.708     | 14.938     | 17.141     |  22.1 |  2.12
Output  | 5.5671e-05 | 6.0527e-05 | 0.00026087 |   0.0 |  0.00
Modify  | 2.0064     | 3.5206     | 5.006      |  57.6 |  0.50
Other   |            | 1.353      |            |       |  0.19

Nlocal:        341.538 ave         367 max         322 min
Histogram: 3 4 6 10 11 9 4 1 2 2
Nghost:        5547.83 ave        5636 max        5466 min
Histogram: 3 10 9 2 4 5 4 2 2 11
Neighs:       107614.0 ave      117777 max       98606 min
Histogram: 2 3 6 8 9 13 5 3 1 2

Total # of neighbors = 5595928
Ave neighs/atom = 315.08604
Ave special neighs/atom = 0.0000000
Neighbor list builds = 588
Dangerous builds = 0
11760 atoms in group oxygen
PPPM initialization ...
  using 12-bit tables for long-range coulomb (../kspace.cpp:328)
  G vector (1/distance) = 0.29874144
  grid = 40 240 40
  stencil order = 5
  estimated absolute RMS force accuracy = 0.00015624044
  estimated relative force accuracy = 1.0850298e-05
  using single precision MKL FFT
  3d grid and FFT values/proc = 18225 7600
Neighbor list info ...
  update every 1 steps, delay 0 steps, check yes
  max neighbors/atom: 2000, page size: 100000
  master list distance cutoff = 13
  ghost atom cutoff = 13
  binsize = 6.5, bins = 5 52 5
  3 neighbor lists, perpetual/occasional/extra = 3 0 0
  (1) pair coul/long, perpetual
      attributes: half, newton on
      pair build: half/bin/newton
      stencil: half/bin/3d/newton
      bin: standard
  (2) pair eam/alloy, perpetual, skip from (1)
      attributes: half, newton on
      pair build: skip
      stencil: none
      bin: none
  (3) pair table, perpetual, skip from (1)
      attributes: half, newton on
      pair build: skip
      stencil: none
      bin: none
Setting up Verlet run ...
  Unit style    : metal
  Current step  : 0
  Time step     : 0.001
Per MPI rank memory allocation (min/avg/max) = 9.850 | 10.23 | 10.28 Mbytes
Step f_2 Temp v_Tdiff v_deltaT 
       0            0    603.93765            0            0 
  100000    689.64471    600.32415   0.01889456    219.36409 
  200000    1356.8566    600.59061  0.021461116    249.16156 
  300000     2028.167    601.88125  0.021443186    248.95339 
  400000    2696.4659    603.42534  0.021344812    247.81129 
  500000     3373.166    598.53405  0.020140748    233.83221 
  600000    4042.2354    599.69772  0.021267964    246.91909 
  700000    4708.4605    599.58898  0.021551659    250.21276 
  800000    5378.8903    604.03228  0.021481925    249.40315 
  900000     6048.151    601.33938  0.021732797    252.31576 
 1000000    6723.3579    602.92245  0.021045481    244.33608 
Loop time of 7011.11 on 52 procs for 1000000 steps with 17760 atoms

Performance: 12.323 ns/day, 1.948 hours/ns, 142.631 timesteps/s
99.8% CPU use with 52 MPI tasks x 1 OpenMP threads

MPI task timing breakdown:
Section |  min time  |  avg time  |  max time  |%varavg| %total
---------------------------------------------------------------
Pair    | 5171.2     | 5280.7     | 5491.3     | 103.2 | 75.32
Bond    | 0.083641   | 0.14078    | 0.17965    |   6.4 |  0.00
Kspace  | 1325.7     | 1525.6     | 1653.9     | 190.7 | 21.76
Neigh   | 18.316     | 19.32      | 20.522     |  11.1 |  0.28
Comm    | 137.76     | 148.62     | 169.96     |  66.2 |  2.12
Output  | 0.0010326  | 0.0010852  | 0.0023037  |   0.5 |  0.00
Modify  | 5.6696     | 6.1292     | 6.7021     |  11.6 |  0.09
Other   |            | 30.61      |            |       |  0.44

Nlocal:        341.538 ave         364 max         321 min
Histogram: 2 1 5 12 10 10 6 2 1 3
Nghost:        5541.65 ave        5635 max        5472 min
Histogram: 8 15 5 0 3 4 5 0 1 11
Neighs:       107603.0 ave      115937 max      100081 min
Histogram: 3 5 6 7 7 9 7 3 2 3

Total # of neighbors = 5595336
Ave neighs/atom = 315.05270
Ave special neighs/atom = 0.0000000
Neighbor list builds = 6284
Dangerous builds = 0
Total wall time: 2:08:36
