ITEM: TIMESTEP
70000
ITEM: NUMBER OF ATOMS
17760
ITEM: BOX BOUNDS pp pp pp
-4.7303084207908230e-01 2.7813030842078913e+01
-5.4810248655442670e+00 3.3356102486554795e+02
-4.7151463160571166e-01 2.7811514631606048e+01
ITEM: ATOMS id type q x y z
1 2 2.2208 5.00065 0.107146 5.02207
2 1 -1.1104 0.875116 -4.14582 0.769846
6 1 -1.1104 1.02222 -4.18799 3.64066
10 1 -1.1104 0.920855 -1.33618 0.901438
12 2 2.2208 5.08842 -2.69342 2.21829
14 1 -1.1104 1.00779 -1.39805 3.47798
16 1 -1.1104 3.90909 -3.98455 0.963592
18 2 2.2208 2.29501 0.149265 2.31629
19 1 -1.1104 3.8133 -3.96356 3.69411
21 2 2.2208 2.11072 -2.68343 5.0558
23 1 -1.1104 3.63023 -1.21422 0.791137
24 1 -1.1104 3.66456 -1.24715 3.7028
11 1 -1.1104 6.49098 -1.21826 0.909064
15 1 -1.1104 6.66069 -1.36908 4.02229
4 1 -1.1104 6.74696 -4.04037 0.734671
166 1 -1.1104 0.8195 -3.96747 6.53691
168 1 -1.1104 6.39052 -3.89775 6.55755
302 2 2.2208 13.5413 11.3452 8.06608
170 1 -1.1104 0.962955 -1.30739 6.46935
8 1 -1.1104 6.58433 -4.04678 3.6776
31 2 2.2208 10.9138 0.174274 5.10076
32 1 -1.1104 12.3035 -4.03913 0.896389
34 1 -1.1104 12.1582 -3.90667 3.79375
36 1 -1.1104 12.3591 -1.12722 0.800895
37 2 2.2208 11.0783 -2.49031 2.11426
39 1 -1.1104 12.1015 -1.19729 3.70568
40 1 -1.1104 9.53567 -3.96167 0.807764
42 2 2.2208 7.99511 0.0136856 2.45191
43 1 -1.1104 9.35643 -4.24101 3.80583
45 2 2.2208 8.02468 -2.62105 5.1476
47 1 -1.1104 9.43152 -1.05238 0.890237
48 1 -1.1104 9.32449 -1.50074 3.42657
572 2 2.2208 2.27197 20.035 -0.390584
9054 2 2.2208 -0.373419 17.1757 5.15417
8330 2 2.2208 10.814 -5.3734 5.14808
171 1 -1.1104 6.34207 -0.937004 6.77955
210 1 -1.1104 9.40242 -1.1445 6.48218
483 2 2.2208 2.32778 16.9791 13.5832
3 1 -1.1104 0.785578 1.51294 1.099
7 1 -1.1104 0.807741 1.16747 4.01422
13 2 2.2208 5.15224 2.94806 2.21206
17 1 -1.1104 3.66906 1.57868 0.650084
20 1 -1.1104 3.76771 1.75591 3.57541
22 2 2.2208 2.30721 2.93903 5.05505
54 2 2.2208 5.11333 5.91131 4.85237
60 1 -1.1104 0.983016 4.43218 0.729884
67 1 -1.1104 0.958352 4.20742 3.5643
72 2 2.2208 2.39521 5.8594 2.2563
76 1 -1.1104 3.87863 4.46565 0.882213
79 1 -1.1104 3.48558 4.55819 3.92732
58 1 -1.1104 0.823298 7.1364 3.6056
5 1 -1.1104 6.57789 1.51159 0.961292
59 1 -1.1104 6.50247 7.29844 3.55459
71 1 -1.1104 3.74122 7.12069 0.545432
69 1 -1.1104 6.31891 4.57279 3.37536
237 1 -1.1104 6.59053 4.31732 6.10372
236 1 -1.1104 0.63063 4.55815 6.64732
74 1 -1.1104 3.65491 7.35768 3.57496
56 1 -1.1104 0.97382 7.14213 0.799492
235 1 -1.1104 6.35846 7.12696 6.50801
9029 2 2.2208 13.4939 19.852 10.6706
9058 2 2.2208 13.5743 17.132 7.90524
239 1 -1.1104 3.68448 4.3856 6.75604
173 1 -1.1104 3.51316 1.61403 6.34718
234 1 -1.1104 0.951874 7.53939 6.62733
169 1 -1.1104 6.4868 1.53556 6.49188
63 1 -1.1104 6.48135 4.53529 0.729461
57 1 -1.1104 6.47059 7.36471 0.830135
9 1 -1.1104 6.45688 1.49442 3.76284
33 1 -1.1104 12.3169 1.61128 1.09532
35 1 -1.1104 12.1764 1.6717 4.03265
38 2 2.2208 10.7271 2.88299 2.30092
41 1 -1.1104 9.43446 1.66546 0.800352
44 1 -1.1104 9.48233 1.39486 3.54649
46 2 2.2208 8.11161 2.95605 5.00216
84 2 2.2208 10.7196 5.73757 4.97088
88 1 -1.1104 12.124 4.27126 0.720498
92 1 -1.1104 12.1025 4.50679 3.74151
95 2 2.2208 7.84471 5.78583 2.1105
99 1 -1.1104 9.51299 4.17674 0.90323
102 1 -1.1104 9.16962 4.27982 3.51291
87 1 -1.1104 12.2086 7.30734 3.63706
97 1 -1.1104 9.26123 7.11978 3.67399
86 1 -1.1104 12.1041 7.16918 1.13639
94 1 -1.1104 9.19602 7.21894 0.865616
17324 2 2.2208 13.6033 -5.3907 7.90043
308 2 2.2208 13.3984 14.3704 10.865
209 1 -1.1104 9.21405 1.61407 6.49545
266 1 -1.1104 12.1585 4.47213 6.61931
206 1 -1.1104 12.1873 1.43561 6.68381
55 2 2.2208 5.03071 11.4981 5.36699
61 1 -1.1104 0.837176 10.1478 0.943496
66 2 2.2208 5.1966 8.80817 2.34662
68 1 -1.1104 0.953629 10.1566 3.70724
73 2 2.2208 2.20168 11.4655 2.4817
75 2 2.2208 2.37145 8.55098 5.18336
77 1 -1.1104 3.69336 10.0976 1.11061
80 1 -1.1104 3.7078 10.0951 3.89292
107 1 -1.1104 0.623819 12.9681 0.961873
113 1 -1.1104 0.625317 12.9357 3.97557
123 1 -1.1104 3.50818 12.7736 0.928272
128 1 -1.1104 3.68857 12.893 3.91508
110 1 -1.1104 6.54758 12.7102 0.799192
64 1 -1.1104 6.30504 9.96604 0.847505
115 1 -1.1104 6.41955 13.0375 3.59975
70 1 -1.1104 6.49366 10.336 3.84004
124 1 -1.1104 3.54055 12.8721 6.76853
78 1 -1.1104 3.63289 9.79157 6.46213
130 2 2.2208 2.34959 14.3865 5.33146
119 2 2.2208 5.17597 14.1207 2.17962
108 1 -1.1104 0.683024 13.0446 6.7687
65 1 -1.1104 6.53548 9.89124 6.39646
447 2 2.2208 8.01507 6.0646 13.4159
85 2 2.2208 10.6303 11.5325 5.03239
89 1 -1.1104 11.8225 9.90889 0.814343
91 2 2.2208 10.7209 8.44862 2.26347
93 1 -1.1104 11.9454 9.97905 3.82883
96 2 2.2208 7.84022 11.422 2.26119
98 2 2.2208 7.93455 8.73139 4.99865
100 1 -1.1104 9.12296 10.1209 0.768433
103 1 -1.1104 9.17087 10.0428 3.55062
142 1 -1.1104 12.3088 12.8034 0.604472
146 1 -1.1104 12.2037 12.6067 3.61381
153 1 -1.1104 9.35475 12.6868 0.955998
158 1 -1.1104 9.26691 12.8522 3.6888
160 2 2.2208 7.7929 14.2562 4.94327
143 1 -1.1104 12.0387 12.9802 6.32101
9048 2 2.2208 13.521 16.9674 2.06267
106 2 2.2208 4.97623 17.0773 5.07053
109 1 -1.1104 0.874396 18.7137 0.979927
114 1 -1.1104 0.863651 18.6899 3.5297
116 1 -1.1104 0.957964 15.86 0.904902
120 2 2.2208 5.22727 19.9026 2.21248
121 1 -1.1104 0.923656 15.8553 3.62979
125 1 -1.1104 3.69462 18.571 0.871729
127 2 2.2208 2.2281 17.12 2.37422
129 1 -1.1104 3.79129 18.4932 3.55286
131 2 2.2208 2.11832 19.8424 5.1222
132 1 -1.1104 3.78529 15.6256 0.850151
134 1 -1.1104 3.65871 15.605 3.82918
140 1 -1.1104 6.69863 15.4015 0.811029
139 1 -1.1104 6.54903 18.5932 3.56582
122 1 -1.1104 6.4707 15.7147 3.54348
117 1 -1.1104 0.885347 15.8408 6.58795
28 1 -1.1104 1.00818 18.503 6.6531
112 1 -1.1104 6.54287 18.299 6.28697
126 1 -1.1104 3.77909 18.6102 6.29771
133 1 -1.1104 3.63006 15.9405 6.76462
9064 2 2.2208 -0.440355 5.82677 5.05782
150 2 2.2208 10.7327 14.1746 2.27557
138 1 -1.1104 6.48164 18.3543 0.826621
156 1 -1.1104 9.28848 18.629 6.65914
141 2 2.2208 10.6904 16.8851 5.05119
144 1 -1.1104 12.0124 18.2254 0.723543
147 1 -1.1104 12.1543 18.503 3.54101
148 1 -1.1104 12.214 15.3989 0.924859
151 2 2.2208 10.7593 19.7774 2.2239
152 1 -1.1104 12.2362 15.5534 3.8016
155 1 -1.1104 9.42005 18.2437 0.98247
157 2 2.2208 7.93271 16.9627 2.21404
159 1 -1.1104 9.29996 18.5555 3.77161
161 2 2.2208 7.87308 19.7415 5.23959
162 1 -1.1104 9.26276 15.4802 0.878856
164 1 -1.1104 9.47805 15.6724 3.70151
149 1 -1.1104 11.9404 15.8242 6.57274
8389 2 2.2208 5.2096 -5.3516 5.16103
145 1 -1.1104 12.0076 18.5808 6.35059
8902 2 2.2208 13.4886 2.93225 10.8405
172 1 -1.1104 3.58975 -3.96032 6.63402
174 1 -1.1104 3.63131 -1.10109 6.65587
175 2 2.2208 5.13249 0.0660549 10.7096
176 1 -1.1104 0.819035 -4.25284 12.1818
180 1 -1.1104 1.14538 -3.81312 9.42163
184 1 -1.1104 0.774889 -1.18309 12.2574
186 2 2.2208 5.08962 -2.59559 7.99749
188 1 -1.1104 0.712097 -0.936229 9.40592
190 1 -1.1104 3.592 -3.91574 12.2141
192 2 2.2208 2.20707 0.299635 7.96445
193 1 -1.1104 3.91467 -3.9472 9.26994
195 2 2.2208 2.22907 -2.45863 10.8439
197 1 -1.1104 3.52604 -1.16624 12.2974
198 1 -1.1104 3.42776 -1.16203 9.56861
182 1 -1.1104 6.67686 -4.1125 9.41077
189 1 -1.1104 6.44332 -1.36268 9.52892
178 1 -1.1104 6.56838 -4.02937 12.3914
449 2 2.2208 8.01952 11.5297 13.5386
9057 2 2.2208 13.5577 14.1681 5.04497
205 1 -1.1104 12.1682 -3.82908 6.50027
207 1 -1.1104 12.4358 -1.13628 6.36655
165 2 2.2208 13.4598 5.82259 8.10757
201 2 2.2208 -0.411924 8.81514 2.35423
185 1 -1.1104 6.73339 -1.17511 12.2636
309 2 2.2208 13.4615 8.62368 11.0259
353 2 2.2208 5.22082 3.05097 13.6484
208 1 -1.1104 9.29578 -3.93263 6.64452
211 2 2.2208 10.8314 0.0432999 10.7095
212 1 -1.1104 12.473 -4.04739 12.2206
214 1 -1.1104 12.2415 -4.08458 9.35076
216 1 -1.1104 12.2535 -1.28759 12.4975
217 2 2.2208 10.7598 -2.69809 8.0247
219 1 -1.1104 12.1187 -1.22987 9.50821
220 1 -1.1104 9.7629 -4.11457 12.2127
222 2 2.2208 7.83725 0.21828 7.9876
223 1 -1.1104 9.44978 -4.27239 9.58397
225 2 2.2208 8.05951 -2.74732 10.8214
227 1 -1.1104 9.44606 -1.16058 11.9739
228 1 -1.1104 9.13237 -1.30024 9.22744
384 2 2.2208 7.99563 0.179523 13.65
25 2 2.2208 10.7164 16.9944 10.8529
9056 2 2.2208 -0.38107 -2.7103 2.33493
9052 2 2.2208 -0.354095 0.538317 10.8351
167 1 -1.1104 0.916416 1.71738 6.67741
177 1 -1.1104 1.06157 1.91524 12.3791
181 1 -1.1104 0.9713 1.79962 9.4078
187 2 2.2208 5.28983 3.14314 7.88771
191 1 -1.1104 3.82505 1.67656 12.3905
194 1 -1.1104 3.70812 1.48105 9.66171
196 2 2.2208 2.34334 3.1367 10.8172
240 2 2.2208 5.04061 5.79187 10.9143
246 1 -1.1104 0.849503 4.6462 12.3596
251 1 -1.1104 0.900166 4.54345 9.38361
255 1 -1.1104 3.69066 7.09434 12.3152
256 2 2.2208 2.3249 5.67933 8.00501
258 1 -1.1104 3.70986 7.15083 9.34761
260 1 -1.1104 3.5615 4.51002 12.317
262 1 -1.1104 3.79764 4.42449 9.58387
244 1 -1.1104 0.847449 7.30133 9.41021
243 1 -1.1104 6.44961 7.35441 12.0128
248 1 -1.1104 6.54135 4.63757 12.0121
253 1 -1.1104 6.95759 4.19879 9.11385
238 1 -1.1104 3.6018 6.97768 6.42379
242 1 -1.1104 0.834968 7.48026 12.2747
485 2 2.2208 5.23888 14.2935 13.5437
9067 2 2.2208 13.5074 11.2302 2.12102
9062 2 2.2208 13.6177 -2.65024 5.05461
269 1 -1.1104 9.29794 4.3851 6.44721
183 1 -1.1104 6.47346 1.62048 9.37193
245 1 -1.1104 6.64191 7.15896 9.22565
179 1 -1.1104 6.67359 1.70623 12.1962
17351 2 2.2208 13.4674 -5.33578 2.2931
233 1 -1.1104 9.49339 15.3725 12.1039
265 1 -1.1104 11.9466 7.04812 6.61017
267 1 -1.1104 9.14894 7.26285 6.2684
213 1 -1.1104 12.1792 1.54599 12.1184
215 1 -1.1104 12.3845 1.61602 9.39693
218 2 2.2208 10.7501 3.03177 7.93136
221 1 -1.1104 9.11411 1.76411 12.2346
224 1 -1.1104 9.42307 1.53096 9.43595
226 2 2.2208 7.99578 3.00631 10.7958
268 1 -1.1104 9.55989 4.42587 9.33217
271 1 -1.1104 9.30076 4.62724 12.3326
275 2 2.2208 7.92844 5.89356 7.65874
276 2 2.2208 10.7057 5.83973 10.7372
280 1 -1.1104 11.8676 4.22907 12.0075
283 1 -1.1104 12.2144 4.53012 9.55341
279 1 -1.1104 11.994 7.25369 9.62433
278 1 -1.1104 12.2372 7.21265 12.3984
273 1 -1.1104 9.18835 7.30207 9.29762
285 1 -1.1104 9.46984 7.20945 12.1276
137 1 -1.1104 9.31785 18.4036 9.5014
62 1 -1.1104 0.975995 10.1428 6.52951
9061 2 2.2208 13.4228 19.8854 4.99134
651 2 2.2208 13.6459 0.0657232 13.5995
241 2 2.2208 5.01693 11.165 10.7496
247 1 -1.1104 0.932007 10.3463 12.195
250 2 2.2208 5.04674 8.46242 7.98484
252 1 -1.1104 0.888715 10.0289 9.57421
257 2 2.2208 2.14335 11.4772 7.92391
259 2 2.2208 2.34839 8.49307 10.7548
261 1 -1.1104 3.73763 9.79258 12.2407
263 1 -1.1104 3.87715 9.87704 9.21872
204 1 -1.1104 3.5117 12.5763 9.43021
287 1 -1.1104 3.66186 12.7783 12.2228
294 1 -1.1104 0.677044 12.854 9.38216
299 1 -1.1104 0.801827 13.1271 12.115
297 1 -1.1104 6.43257 12.8766 12.2478
111 1 -1.1104 6.43108 12.7471 6.63639
254 1 -1.1104 6.44773 9.96766 9.35623
290 1 -1.1104 6.25634 13.0269 9.56102
29 1 -1.1104 9.14824 15.6813 9.41739
229 2 2.2208 7.97947 19.8817 10.9003
154 1 -1.1104 9.41872 12.7522 6.54881
90 1 -1.1104 12.0721 9.89251 6.82002
305 2 2.2208 13.6433 5.71166 2.57521
249 1 -1.1104 6.63304 10.1234 12.0795
101 1 -1.1104 9.29821 9.94696 6.29654
264 1 -1.1104 9.16134 10.2144 9.33437
270 1 -1.1104 9.42813 9.93798 12.1249
272 2 2.2208 7.83247 8.67043 10.8784
274 2 2.2208 7.84371 11.3146 7.9354
277 2 2.2208 10.6998 11.4854 10.7205
281 1 -1.1104 12.1099 10.125 12.2356
282 2 2.2208 10.4876 8.56368 8.05241
284 1 -1.1104 12.1495 9.98412 9.4466
26 1 -1.1104 12.2179 12.9079 12.4555
49 1 -1.1104 12.047 12.9604 9.35519
104 1 -1.1104 9.1658 12.5808 12.1054
136 1 -1.1104 9.13468 12.9777 9.31806
83 1 -1.1104 11.9807 15.5785 9.44624
9051 2 2.2208 -0.421428 -2.63933 7.87346
118 1 -1.1104 6.21796 15.51 6.3252
289 1 -1.1104 6.39132 15.6911 9.18601
30 2 2.2208 2.2749 14.0834 10.7852
296 1 -1.1104 6.62095 18.6693 12.3091
295 2 2.2208 5.0015 14.2644 8.03209
292 1 -1.1104 0.813608 15.6503 9.42414
291 1 -1.1104 0.79811 18.3273 9.37925
300 2 2.2208 5.23531 16.9801 10.8794
298 1 -1.1104 0.869418 18.5865 12.2018
293 2 2.2208 4.92772 19.8672 8.07938
51 2 2.2208 2.22613 19.8485 10.7519
52 1 -1.1104 3.89104 15.6194 12.3765
202 1 -1.1104 0.878097 15.7944 12.1656
230 1 -1.1104 3.51311 18.5376 9.26111
231 1 -1.1104 3.49358 15.5507 9.55979
232 2 2.2208 2.21078 16.9495 8.14462
286 1 -1.1104 3.7697 18.5492 11.9295
288 1 -1.1104 6.38062 18.4294 9.31848
105 1 -1.1104 9.35812 18.4333 12.4611
385 2 2.2208 10.799 -2.67756 13.6073
163 1 -1.1104 9.18233 15.5907 6.63182
9063 2 2.2208 13.4466 8.5797 5.25847
27 1 -1.1104 12.1337 18.5679 12.3479
199 2 2.2208 7.76403 14.3056 10.7948
81 2 2.2208 10.6475 14.2464 7.95941
50 1 -1.1104 12.2311 18.3451 9.55709
203 1 -1.1104 6.8252 15.901 12.1763
135 2 2.2208 7.88158 16.9206 7.89788
82 2 2.2208 10.8294 19.8932 7.80774
53 1 -1.1104 12.0914 15.7155 12.4715
544 2 2.2208 2.12471 14.3044 -0.375194
8704 2 2.2208 10.8966 -5.45712 -0.440936
9406 2 2.2208 13.5345 19.7817 -0.450053
422 2 2.2208 2.21145 11.7397 13.5678
351 2 2.2208 5.16018 -2.56091 13.5936
386 2 2.2208 10.9155 3.15863 13.6109
420 2 2.2208 2.19803 5.97825 13.6438
568 2 2.2208 10.7754 0.254562 -0.435273
9410 2 2.2208 -0.446947 0.181543 -0.322102
311 2 2.2208 5.27 0.109861 16.4895
312 1 -1.1104 0.732019 -4.27987 18.0834
316 1 -1.1104 0.999538 -4.02155 15.0219
324 1 -1.1104 1.08318 -1.40285 17.6359
326 2 2.2208 5.05772 -2.80587 19.1642
328 1 -1.1104 0.700981 -0.965207 14.8656
332 1 -1.1104 3.62149 -4.28582 17.8296
334 2 2.2208 2.07617 0.14648 19.2385
335 1 -1.1104 3.72808 -4.24699 15.1291
339 2 2.2208 2.52793 -2.78927 16.5307
341 1 -1.1104 3.91856 -1.44919 17.8796
342 1 -1.1104 3.72912 -1.33533 15.0604
320 1 -1.1104 6.60598 -3.86062 15.0502
330 1 -1.1104 6.62573 -1.11798 15.0641
325 1 -1.1104 6.58814 -1.47536 17.9904
314 1 -1.1104 6.4325 -4.22737 17.8386
321 1 -1.1104 6.6471 -4.07082 20.7433
331 1 -1.1104 6.55505 -1.22084 20.8596
329 1 -1.1104 0.857284 -1.2611 20.439
343 1 -1.1104 3.57424 -1.23764 20.7951
538 2 2.2208 5.1306 0.110397 27.7034
317 1 -1.1104 0.822777 -4.27008 20.9561
8422 2 2.2208 13.691 -5.38739 24.9965
569 2 2.2208 8.13269 -2.59733 27.7514
354 2 2.2208 10.6771 0.230957 16.4445
355 1 -1.1104 12.4624 -4.05975 17.7867
357 1 -1.1104 12.41 -4.10248 14.9914
361 1 -1.1104 12.1891 -1.15187 18.0323
362 2 2.2208 10.6994 -2.56563 19.2785
364 1 -1.1104 12.2067 -1.29578 15.3883
366 1 -1.1104 9.5005 -4.0412 17.7192
368 2 2.2208 7.88789 0.0706169 19.2632
369 1 -1.1104 9.45531 -4.21102 15.0455
373 2 2.2208 8.12263 -2.68873 16.4288
375 1 -1.1104 9.32613 -1.15627 17.6488
376 1 -1.1104 9.40881 -1.3694 14.7358
370 1 -1.1104 9.4855 -3.97657 20.7394
358 1 -1.1104 12.2818 -3.85206 20.8026
545 2 2.2208 4.99892 17.042 27.7927
365 1 -1.1104 12.2229 -0.950793 20.8128
377 1 -1.1104 9.40198 -1.09335 20.681
8460 2 2.2208 7.9582 -5.45003 24.8431
549 1 -1.1104 12.1076 15.6392 23.4461
576 1 -1.1104 12.3563 15.672 26.4637
665 2 2.2208 13.618 5.67381 19.2787
333 1 -1.1104 3.80584 1.59578 17.8815
313 1 -1.1104 0.693154 1.34441 17.7609
318 1 -1.1104 0.836214 1.74374 15.1343
327 2 2.2208 5.19203 2.72856 19.1868
337 1 -1.1104 3.7819 1.50645 15.1328
340 2 2.2208 2.36886 2.86967 16.506
387 2 2.2208 5.12313 5.77391 16.4961
389 1 -1.1104 1.19876 7.09032 17.7999
391 1 -1.1104 0.880641 7.451 15.0343
395 1 -1.1104 1.09698 4.19812 17.9433
400 1 -1.1104 1.04373 4.55526 15.2333
409 2 2.2208 2.31188 5.64215 19.2735
411 1 -1.1104 3.73104 7.10764 15.0611
414 1 -1.1104 3.93148 4.34146 17.9563
416 1 -1.1104 4.03376 4.37933 15.1097
393 1 -1.1104 6.7256 7.32704 14.9878
315 1 -1.1104 6.54532 1.43585 17.9654
404 1 -1.1104 6.76996 4.3964 14.9515
394 1 -1.1104 6.6674 7.03873 20.6477
397 1 -1.1104 6.63933 4.48562 17.8053
408 1 -1.1104 3.85965 7.17545 17.7566
390 1 -1.1104 6.84623 7.3624 17.9567
417 1 -1.1104 3.82912 4.52215 20.542
392 1 -1.1104 0.99033 7.26974 20.5139
323 1 -1.1104 6.74365 1.53211 20.6606
8527 2 2.2208 10.7034 -5.4409 22.206
322 1 -1.1104 6.545 1.68664 15.2733
356 1 -1.1104 12.2392 1.51839 17.8029
359 1 -1.1104 12.0536 1.44765 14.9101
363 2 2.2208 10.705 3.11527 19.2451
367 1 -1.1104 9.26677 1.69759 17.8263
371 1 -1.1104 9.2758 1.70553 15.0191
374 2 2.2208 7.82369 3.02112 16.5823
423 2 2.2208 10.8986 5.74316 16.3987
428 1 -1.1104 12.453 4.33853 18.0114
431 1 -1.1104 12.3924 4.49602 14.8649
435 1 -1.1104 9.67094 7.23861 17.7423
436 2 2.2208 7.90429 5.85271 19.3394
441 1 -1.1104 9.3941 4.59147 17.8949
443 1 -1.1104 9.72807 4.27765 15.0951
426 1 -1.1104 12.2428 7.34496 15.2647
425 1 -1.1104 12.1602 7.15302 18.1958
438 1 -1.1104 9.30005 7.27041 15.0193
686 2 2.2208 -0.366338 5.8222 22.0135
439 1 -1.1104 9.39313 7.13355 20.754
427 1 -1.1104 12.2832 7.41251 20.7276
432 1 -1.1104 12.4029 4.42209 20.6887
360 1 -1.1104 12.0099 1.92754 20.577
372 1 -1.1104 9.39947 1.81479 20.704
444 1 -1.1104 9.4983 4.47712 20.6501
388 2 2.2208 4.99448 11.5146 16.5983
396 1 -1.1104 1.00065 9.92369 18.1729
399 2 2.2208 5.13549 8.54274 19.2723
402 1 -1.1104 1.0513 10.2889 15.1708
410 2 2.2208 2.30812 11.4755 19.4306
413 2 2.2208 2.43198 8.75414 16.5574
415 1 -1.1104 3.79637 10.0672 18.0727
418 1 -1.1104 3.97505 10.1824 15.0007
451 1 -1.1104 0.750154 12.8679 17.7258
455 1 -1.1104 0.620903 13.028 14.7365
471 1 -1.1104 3.74041 12.8674 18.0713
474 1 -1.1104 3.39543 12.8548 15.1567
453 1 -1.1104 6.61466 12.9879 18.1764
406 1 -1.1104 6.61536 10.1393 14.8943
459 1 -1.1104 6.2443 12.9314 15.1656
419 1 -1.1104 3.58779 9.87228 20.7358
456 1 -1.1104 0.863224 12.8261 20.5121
407 1 -1.1104 6.72986 10.1085 20.626
504 1 -1.1104 9.36144 18.3818 20.8611
398 1 -1.1104 6.35979 10.2145 17.7437
460 1 -1.1104 6.34188 12.9111 20.9759
667 2 2.2208 13.5609 11.4928 13.7015
424 2 2.2208 10.8101 11.4999 16.6696
429 1 -1.1104 12.3132 10.124 17.9285
430 2 2.2208 10.8146 8.69589 19.2639
433 1 -1.1104 12.1561 9.9997 15.1271
437 2 2.2208 7.80966 11.5564 19.3899
440 2 2.2208 7.99209 8.73389 16.4537
442 1 -1.1104 9.3582 10.0933 17.886
445 1 -1.1104 9.33201 10.1652 14.8783
487 1 -1.1104 12.3069 12.8391 18.012
489 1 -1.1104 12.1701 12.8063 15.1706
498 1 -1.1104 9.26359 13.0968 18.1157
501 1 -1.1104 9.22469 12.9887 15.0965
502 1 -1.1104 9.36047 12.8867 20.7206
446 1 -1.1104 9.41975 10.0089 20.478
659 2 2.2208 13.5585 0.272375 25.0051
490 1 -1.1104 12.2736 12.9224 20.943
434 1 -1.1104 12.2103 10.2731 21.0088
465 2 2.2208 5.05043 14.381 19.4506
478 2 2.2208 2.22004 14.2894 16.4885
450 2 2.2208 5.19771 16.9356 16.4511
452 1 -1.1104 1.0053 18.31 17.6075
457 1 -1.1104 1.07836 18.3126 14.8841
463 1 -1.1104 0.824066 15.6169 17.9723
466 2 2.2208 4.9025 19.7413 19.4372
467 1 -1.1104 0.759157 15.5957 15.0907
472 1 -1.1104 3.7814 18.3805 17.8846
473 2 2.2208 2.2744 16.9944 19.2209
476 1 -1.1104 3.94031 18.428 14.8058
479 2 2.2208 2.28755 19.7696 16.3791
480 1 -1.1104 3.54758 15.621 17.9012
481 1 -1.1104 3.72656 15.6247 15.1155
469 1 -1.1104 6.57074 15.5183 15.2097
461 1 -1.1104 6.65317 18.461 15.0064
458 1 -1.1104 0.746203 18.7528 20.5534
470 1 -1.1104 6.71663 15.6819 20.7598
468 1 -1.1104 0.815987 15.9072 20.6846
477 1 -1.1104 3.67802 18.3635 20.9606
682 2 2.2208 -0.457671 8.76396 25.0523
633 1 -1.1104 9.29295 15.6662 23.6016
662 2 2.2208 13.5084 8.52506 27.5885
454 1 -1.1104 6.3211 18.3387 17.915
464 1 -1.1104 6.41709 15.6407 18.0506
484 2 2.2208 5.26787 19.9832 13.7109
505 2 2.2208 7.88693 14.2647 16.6876
494 2 2.2208 10.8003 14.234 19.4211
486 2 2.2208 10.8151 16.9353 16.3897
488 1 -1.1104 12.3056 18.5497 17.7167
491 1 -1.1104 12.2316 18.8316 15.1272
493 1 -1.1104 12.215 15.6602 18.1085
495 2 2.2208 10.722 19.8642 19.3111
496 1 -1.1104 12.2892 15.7016 15.1069
499 1 -1.1104 9.09106 18.7113 18.2834
500 2 2.2208 7.99891 17.0687 19.4632
503 1 -1.1104 9.43074 18.5169 15.2264
506 2 2.2208 7.72692 19.9777 16.7429
507 1 -1.1104 9.25805 15.8159 17.9117
508 1 -1.1104 9.52061 15.708 14.7778
509 1 -1.1104 9.47733 15.6737 20.6026
497 1 -1.1104 12.2126 15.5734 20.7461
603 2 2.2208 5.19004 5.84956 27.4977
670 2 2.2208 13.5968 14.2174 16.6609
575 2 2.2208 10.79 19.8908 24.9124
632 2 2.2208 7.92837 19.9493 22.1854
548 1 -1.1104 12.0302 18.5381 26.4967
336 1 -1.1104 3.58884 -3.94206 20.5636
514 2 2.2208 5.01378 0.132801 22.0038
515 1 -1.1104 0.692824 -4.04458 23.4176
519 1 -1.1104 1.06962 -4.09342 26.3062
523 1 -1.1104 0.768618 -1.28942 23.3867
525 2 2.2208 5.1146 -2.782 24.8455
527 1 -1.1104 0.996665 -1.42126 26.2808
529 1 -1.1104 3.79954 -4.13559 23.5204
531 2 2.2208 2.20219 -0.00390957 24.8879
532 1 -1.1104 3.98067 -4.38535 26.3099
534 2 2.2208 2.2871 -2.69879 22.0777
536 1 -1.1104 3.74344 -1.49784 23.3706
537 1 -1.1104 3.6346 -1.36912 26.2183
521 1 -1.1104 6.76296 -4.20608 26.2405
524 1 -1.1104 6.46727 -1.15028 23.5972
517 1 -1.1104 6.67046 -4.19849 23.4056
528 1 -1.1104 6.4372 -1.3362 26.4197
671 2 2.2208 13.5473 17.1041 19.4032
605 2 2.2208 5.17091 11.5313 27.7447
541 2 2.2208 10.8062 17.067 22.2385
513 2 2.2208 8.00578 19.8402 27.803
606 2 2.2208 7.85492 17.1768 24.959
677 2 2.2208 13.6105 -2.49796 27.5334
510 2 2.2208 10.637 20.0078 13.92
550 2 2.2208 10.9692 0.339026 22.0256
551 1 -1.1104 12.2136 -4.00609 23.7159
553 1 -1.1104 12.3224 -4.01869 26.39
555 1 -1.1104 12.1432 -1.18934 23.4983
556 2 2.2208 10.7248 -2.58356 24.8684
558 1 -1.1104 11.9907 -1.19523 26.2784
559 1 -1.1104 9.47142 -4.03778 23.6432
561 2 2.2208 7.92115 0.205808 24.8589
562 1 -1.1104 9.45605 -4.21436 26.4578
564 2 2.2208 7.9197 -2.39879 22.1095
566 1 -1.1104 9.29886 -1.1696 23.5794
567 1 -1.1104 9.38809 -1.18473 26.3947
492 1 -1.1104 11.947 18.4156 20.7146
540 2 2.2208 2.15693 2.92515 27.5369
378 2 2.2208 10.768 17.0682 27.7515
401 1 -1.1104 0.876132 4.51078 20.6672
412 1 -1.1104 3.62064 7.2371 20.8008
630 2 2.2208 10.6721 11.2439 27.669
338 1 -1.1104 3.75733 1.35832 20.6025
319 1 -1.1104 0.956068 1.66212 20.6102
516 1 -1.1104 1.08068 1.62692 23.509
520 1 -1.1104 0.896053 1.55137 26.2997
526 2 2.2208 5.03408 2.87673 24.8883
530 1 -1.1104 3.66078 1.53423 23.4099
533 1 -1.1104 3.62359 1.51986 26.1615
535 2 2.2208 2.2324 2.87464 21.9984
579 2 2.2208 5.19259 5.72398 22.0386
585 1 -1.1104 0.971886 4.39463 23.2616
590 1 -1.1104 0.89666 4.2982 26.1411
595 2 2.2208 2.32903 5.76141 24.8563
599 1 -1.1104 3.74246 4.45871 23.4203
601 1 -1.1104 3.81989 4.23862 26.3836
594 1 -1.1104 3.92571 7.43965 23.4087
583 1 -1.1104 1.00588 7.31102 26.0877
597 1 -1.1104 3.81789 7.15342 26.058
522 1 -1.1104 6.50132 1.62808 26.4933
582 1 -1.1104 6.54801 7.05932 23.2932
518 1 -1.1104 6.47224 1.38977 23.4689
587 1 -1.1104 6.49563 4.18714 23.6211
592 1 -1.1104 6.34912 4.36502 26.2829
658 2 2.2208 13.6562 14.2982 22.0827
628 2 2.2208 10.7984 5.61397 27.7167
9405 2 2.2208 13.4636 19.7458 22.256
8493 2 2.2208 10.8428 -5.41623 16.5376
584 1 -1.1104 6.49046 7.00671 26.2366
405 1 -1.1104 6.63554 4.07095 20.6175
512 2 2.2208 8.04855 17.3189 13.6768
552 1 -1.1104 12.3762 1.55885 23.375
554 1 -1.1104 12.2088 1.64346 26.4437
557 2 2.2208 10.8097 2.99869 24.9362
560 1 -1.1104 9.50355 1.74054 23.4471
563 1 -1.1104 9.18569 1.49672 26.2795
565 2 2.2208 8.06819 3.0118 22.0625
611 1 -1.1104 9.27209 4.36721 26.3436
613 1 -1.1104 9.25504 4.35648 23.2982
617 2 2.2208 7.84647 5.67552 24.8652
618 2 2.2208 10.856 5.66508 22.0289
621 1 -1.1104 11.8807 7.04221 26.4918
622 1 -1.1104 12.2463 4.18547 23.4415
625 1 -1.1104 12.251 4.29745 26.2606
615 1 -1.1104 9.39286 7.26262 26.4451
627 1 -1.1104 9.41405 7.08391 23.7126
620 1 -1.1104 12.0506 6.96343 23.7009
604 2 2.2208 2.51302 8.60513 27.6781
685 2 2.2208 13.524 8.61911 22.2404
475 1 -1.1104 3.65321 12.9549 20.8394
403 1 -1.1104 0.702701 10.0532 20.7792
581 1 -1.1104 0.722953 7.15508 23.6584
636 1 -1.1104 3.50264 12.9064 23.481
640 1 -1.1104 0.823292 12.9291 26.4156
580 2 2.2208 5.00513 11.4075 22.1698
586 1 -1.1104 0.817558 10.1947 23.5685
589 2 2.2208 5.2408 8.66589 24.7952
591 1 -1.1104 1.02586 10.0127 26.4615
596 2 2.2208 2.20635 11.4765 24.7905
598 2 2.2208 2.22405 8.57031 21.9203
600 1 -1.1104 3.47802 10.095 23.5155
602 1 -1.1104 3.81333 9.8627 26.3223
646 1 -1.1104 0.718099 12.837 23.5146
379 1 -1.1104 3.65558 13.0156 26.2574
593 1 -1.1104 6.48905 10.0768 26.3756
573 2 2.2208 2.24646 14.3888 22.2328
629 2 2.2208 7.74656 8.80278 27.6274
678 2 2.2208 13.6281 11.4642 25.0328
631 2 2.2208 7.97825 14.1907 22.2624
609 1 -1.1104 9.20508 18.4996 26.4954
571 2 2.2208 10.754 14.0639 25.0412
588 1 -1.1104 6.35511 9.98163 23.3638
635 1 -1.1104 6.52177 12.9751 26.4373
644 1 -1.1104 6.56158 12.7101 23.5366
608 1 -1.1104 9.26745 12.6067 26.1772
577 1 -1.1104 9.3579 12.6872 23.6278
547 1 -1.1104 11.9839 12.7383 26.2483
542 1 -1.1104 12.3453 12.9711 23.6033
610 1 -1.1104 9.2157 9.92071 26.09
612 1 -1.1104 9.18746 9.93361 23.3694
614 2 2.2208 7.97105 8.48711 21.9257
616 2 2.2208 7.97036 11.2979 24.8001
619 2 2.2208 10.9134 11.4127 22.2093
623 1 -1.1104 12.0557 9.93975 23.6513
624 2 2.2208 10.733 8.63176 24.8366
626 1 -1.1104 12.1009 9.92504 26.2526
380 2 2.2208 13.6449 0.233311 19.4084
8741 2 2.2208 13.4906 -5.36198 19.3625
448 2 2.2208 10.5881 8.67616 13.6497
543 1 -1.1104 9.69475 15.4934 26.4545
482 1 -1.1104 3.71753 15.667 20.6913
462 1 -1.1104 6.50114 18.4994 20.7497
643 2 2.2208 5.13264 14.2743 24.9342
347 1 -1.1104 6.54856 15.501 23.4746
607 1 -1.1104 6.29014 18.4043 26.4573
383 1 -1.1104 3.62007 18.6784 26.5053
642 2 2.2208 5.03363 19.9277 25.4047
382 2 2.2208 2.12778 17.0592 24.8493
639 1 -1.1104 0.997854 15.7592 26.529
647 2 2.2208 5.18484 17.0785 22.1753
381 1 -1.1104 3.81497 15.684 26.4408
634 1 -1.1104 3.54114 18.5921 23.8418
638 1 -1.1104 0.920829 18.597 26.3466
574 2 2.2208 2.33956 19.8864 22.2658
645 1 -1.1104 0.691768 18.4875 23.2313
345 1 -1.1104 3.71952 15.624 23.5198
346 1 -1.1104 0.825379 15.6832 23.635
641 1 -1.1104 6.54084 18.5094 23.7329
637 1 -1.1104 6.78186 15.5711 26.2906
9093 2 2.2208 13.4773 -2.62291 16.4827
655 2 2.2208 -0.435502 5.8686 16.4294
578 1 -1.1104 9.42256 18.5742 23.5364
546 1 -1.1104 12.2397 18.3677 23.7666
9100 2 2.2208 -0.451304 17.252 27.7942
344 2 2.2208 8.0053 14.0705 27.7158
352 2 2.2208 2.34859 0.145034 13.723
649 2 2.2208 13.4712 3.06885 16.4958
661 2 2.2208 13.4348 5.6726 24.8601
8569 2 2.2208 2.36715 -5.41614 24.9305
511 2 2.2208 10.8798 14.2055 13.6952
668 2 2.2208 -0.415688 8.62263 19.3496
683 2 2.2208 -0.468949 11.3935 27.7036
570 2 2.2208 7.95562 2.95928 27.7871
421 2 2.2208 5.27443 8.68258 13.7513
348 2 2.2208 -0.411586 19.7411 13.7085
657 2 2.2208 13.517 17.1904 13.7379
539 2 2.2208 2.34703 -2.8067 27.6841
9407 2 2.2208 13.6552 14.1314 27.7752
9412 2 2.2208 -0.457678 2.96519 13.6993
687 2 2.2208 4.92463 22.7105 5.30589
689 1 -1.1104 0.831482 24.1147 0.99368
690 1 -1.1104 0.577494 24.139 4.06973
691 1 -1.1104 0.778895 21.3876 0.886968
693 2 2.2208 5.18536 25.4904 2.24678
694 1 -1.1104 0.607205 21.4657 3.82839
696 1 -1.1104 3.67294 24.1066 0.85481
697 2 2.2208 2.4002 22.8807 2.38485
699 1 -1.1104 3.58681 24.1442 3.841
700 2 2.2208 2.24889 25.5575 5.1827
701 1 -1.1104 3.78057 21.4765 1.06471
703 1 -1.1104 3.70666 21.3984 3.9106
710 1 -1.1104 6.42676 21.3572 0.964267
708 1 -1.1104 6.4956 24.2083 0.868987
702 1 -1.1104 3.74118 26.9362 1.07338
695 1 -1.1104 0.763343 26.8646 3.84507
713 1 -1.1104 6.27245 26.8322 3.85082
834 1 -1.1104 3.78918 24.3337 6.80718
828 1 -1.1104 1.0265 24.1503 6.61435
712 1 -1.1104 6.76531 21.2949 3.63273
709 1 -1.1104 6.63536 24.1081 3.78897
692 1 -1.1104 0.861857 26.848 0.972526
704 1 -1.1104 3.49845 26.686 3.77095
831 1 -1.1104 0.990639 26.9557 6.73882
832 1 -1.1104 6.33815 20.9045 6.63557
711 1 -1.1104 6.79786 26.9454 0.748664
714 2 2.2208 10.7212 22.685 5.22841
716 1 -1.1104 12.1329 23.8395 0.953447
717 1 -1.1104 12.1518 24.1647 3.88134
718 1 -1.1104 12.2793 21.1199 1.15379
720 2 2.2208 10.8155 25.4975 2.32302
723 1 -1.1104 9.36248 24.0356 0.956101
724 2 2.2208 7.9132 22.6291 2.53338
726 1 -1.1104 9.21354 24.0703 4.01031
727 2 2.2208 7.94828 25.4102 5.36587
728 1 -1.1104 9.32197 21.0226 0.793481
730 1 -1.1104 9.52899 21.2722 3.66727
721 1 -1.1104 12.1336 21.4006 3.81913
729 1 -1.1104 9.68978 26.873 0.802176
731 1 -1.1104 9.23664 26.9366 3.57937
719 1 -1.1104 12.361 27.1778 3.67186
866 1 -1.1104 9.33364 26.8337 6.45216
864 1 -1.1104 9.37598 23.9277 6.73995
865 1 -1.1104 9.01842 21.201 6.40995
722 1 -1.1104 12.0065 26.7378 6.3036
1212 1 -1.1104 12.3321 26.7144 1.05177
10070 2 2.2208 13.5166 42.4984 -0.312171
861 1 -1.1104 12.2673 24.297 6.87044
862 1 -1.1104 12.0924 21.471 6.78279
833 1 -1.1104 6.61712 27.083 6.73654
10086 2 2.2208 13.5653 36.9119 -0.47733
688 2 2.2208 5.01814 28.3561 5.23899
698 2 2.2208 2.3603 28.2935 2.28323
736 1 -1.1104 0.866568 29.5712 1.00987
739 1 -1.1104 0.872948 29.6977 3.75348
742 1 -1.1104 0.972625 32.5435 1.06087
743 2 2.2208 5.08313 31.1599 2.34384
745 1 -1.1104 0.805635 32.6303 3.84685
747 1 -1.1104 3.72996 29.8451 0.904998
750 1 -1.1104 3.59912 29.6233 3.83274
752 2 2.2208 2.09337 31.0522 5.33753
754 1 -1.1104 3.72929 32.6375 1.07181
755 1 -1.1104 3.80959 32.2846 3.98627
761 1 -1.1104 6.41745 32.4729 0.742857
887 1 -1.1104 3.57021 30.0112 6.73411
760 1 -1.1104 6.35796 29.7719 3.7245
759 1 -1.1104 6.68566 29.6509 0.842229
1539 1 -1.1104 6.36285 46.5937 9.49715
885 1 -1.1104 1.04824 32.5649 6.85258
881 1 -1.1104 1.03242 29.7353 6.94216
9724 2 2.2208 -0.440163 36.6671 7.91237
1144 2 2.2208 10.7048 39.6524 -0.345576
1195 2 2.2208 10.8703 45.2361 -0.486223
746 1 -1.1104 6.56514 32.4661 3.84371
883 1 -1.1104 6.38136 29.9032 6.52879
715 2 2.2208 10.6241 28.3863 5.09698
725 2 2.2208 7.81361 28.2733 2.24075
763 1 -1.1104 12.2414 29.8164 0.744727
765 1 -1.1104 12.3539 29.5913 3.60109
767 1 -1.1104 12.1285 32.5418 0.916665
768 2 2.2208 10.8261 31.0853 2.38014
770 1 -1.1104 12.2851 32.4352 3.63976
771 1 -1.1104 9.65136 29.6447 0.890159
774 1 -1.1104 9.19437 29.9372 3.63664
776 2 2.2208 7.83404 31.0874 5.17614
778 1 -1.1104 9.176 32.3366 0.850643
779 1 -1.1104 9.40976 32.5626 3.72326
920 1 -1.1104 9.29909 32.7722 6.46557
917 1 -1.1104 12.0537 32.7528 6.30904
918 1 -1.1104 9.07086 29.7565 6.4397
1337 1 -1.1104 6.40237 46.5619 1.0974
735 2 2.2208 5.07593 34.0016 5.28422
737 1 -1.1104 0.658032 35.3666 1.17097
740 1 -1.1104 0.767171 35.3764 3.87579
744 2 2.2208 4.81372 36.7131 2.29526
748 1 -1.1104 3.64276 35.3132 0.857515
749 2 2.2208 2.30891 33.9087 2.34395
751 1 -1.1104 3.45735 35.1317 3.79846
753 2 2.2208 2.25136 36.6132 5.29544
781 2 2.2208 4.96576 39.5418 5.16049