ITEM: TIMESTEP
80000
ITEM: NUMBER OF ATOMS
17760
ITEM: BOX BOUNDS pp pp pp
-4.6479313176179221e-01 2.7804793131761766e+01
-5.6834317215168975e+00 3.3376343172151934e+02
-4.5055145657152934e-01 2.7790551456571727e+01
ITEM: ATOMS id type q x y z
1 2 2.2208 5.02871 0.0720029 5.44547
2 1 -1.1104 0.976056 -4.44843 1.00454
6 1 -1.1104 0.905075 -4.03629 3.88743
10 1 -1.1104 0.940165 -1.58923 1.11453
12 2 2.2208 5.08949 -2.70883 2.65164
14 1 -1.1104 0.821699 -1.43033 4.03164
16 1 -1.1104 3.8289 -4.05907 1.17644
18 2 2.2208 2.18985 -0.0556166 2.68925
19 1 -1.1104 3.7586 -4.23916 4.13006
21 2 2.2208 2.23253 -2.6476 5.45789
23 1 -1.1104 3.75194 -1.25709 1.26328
24 1 -1.1104 3.5562 -1.38315 4.05421
8 1 -1.1104 6.51621 -4.14378 4.03189
8208 2 2.2208 4.80704 -5.78176 11.111
15 1 -1.1104 6.40196 -1.19802 4.03068
11 1 -1.1104 6.43155 -1.34403 1.02598
4 1 -1.1104 6.64833 -4.09248 1.32242
9050 2 2.2208 -0.42797 8.54643 8.20624
8264 2 2.2208 2.30225 -5.53247 8.20511
31 2 2.2208 10.5746 0.0932006 5.38905
32 1 -1.1104 12.3861 -4.03029 1.07795
34 1 -1.1104 12.0675 -4.09352 4.15126
36 1 -1.1104 11.7884 -1.35763 0.923491
37 2 2.2208 10.8262 -2.62031 2.45066
39 1 -1.1104 12.2181 -1.22624 3.65365
40 1 -1.1104 9.33778 -4.32919 1.28503
42 2 2.2208 7.95854 0.195234 2.85327
43 1 -1.1104 9.30587 -4.19471 3.93871
45 2 2.2208 7.98575 -2.90072 5.25801
47 1 -1.1104 9.11186 -1.22313 1.27809
48 1 -1.1104 9.3073 -1.29338 4.01374
145 1 -1.1104 11.9723 18.3619 6.5779
422 2 2.2208 2.04203 11.3687 13.7185
207 1 -1.1104 12.0642 -1.21217 6.80455
210 1 -1.1104 9.16712 -1.1262 6.76452
9058 2 2.2208 13.4019 16.7962 7.97318
630 2 2.2208 10.6009 11.5308 -0.229056
8330 2 2.2208 10.7798 -5.65649 5.51388
9067 2 2.2208 13.5223 11.3874 2.39158
568 2 2.2208 10.6638 0.119922 -0.302414
344 2 2.2208 7.74305 14.4879 -0.264752
8389 2 2.2208 4.9239 -5.60609 5.34367
3 1 -1.1104 0.927822 1.53998 1.28564
7 1 -1.1104 0.857608 1.27347 4.20036
13 2 2.2208 5.01969 2.94228 2.68899
17 1 -1.1104 3.81081 1.68145 1.23467
20 1 -1.1104 3.4634 1.431 4.20136
22 2 2.2208 2.32456 2.89211 5.50713
54 2 2.2208 5.01524 5.72665 5.42937
60 1 -1.1104 0.949606 4.42449 1.26021
67 1 -1.1104 0.84975 4.48127 3.928
72 2 2.2208 2.17067 5.78886 2.57426
76 1 -1.1104 3.70179 4.51514 1.43303
79 1 -1.1104 3.80953 4.33198 4.15937
58 1 -1.1104 0.857027 7.28773 3.93193
71 1 -1.1104 3.7863 7.16957 1.06743
74 1 -1.1104 3.7243 7.10821 3.95986
56 1 -1.1104 0.804934 7.14104 1.25327
5 1 -1.1104 6.4127 1.6409 1.53203
545 2 2.2208 4.99139 17.0151 -0.214661
9 1 -1.1104 6.59898 1.70961 4.1322
59 1 -1.1104 6.55294 7.19005 3.84291
57 1 -1.1104 6.63839 6.92499 0.984132
63 1 -1.1104 6.46799 4.34835 1.40201
234 1 -1.1104 0.879085 7.18376 6.73329
237 1 -1.1104 6.55402 4.13546 6.9569
69 1 -1.1104 6.81266 4.49274 4.09524
33 1 -1.1104 11.9908 1.49324 1.23825
35 1 -1.1104 11.8141 1.53725 4.09666
38 2 2.2208 10.7114 3.02923 2.30609
41 1 -1.1104 9.25712 1.64867 1.0548
44 1 -1.1104 9.30852 1.4478 3.93092
46 2 2.2208 8.05544 2.90512 5.5054
84 2 2.2208 10.755 5.79389 5.48336
88 1 -1.1104 12.1967 4.19823 0.850198
92 1 -1.1104 12.1858 4.52092 4.06389
95 2 2.2208 7.88715 5.79671 2.50475
99 1 -1.1104 9.12231 4.41276 0.85111
102 1 -1.1104 9.46996 4.29525 4.09295
87 1 -1.1104 12.2065 7.21794 4.14301
97 1 -1.1104 9.36244 7.16279 4.02748
86 1 -1.1104 12.0564 7.21405 1.33648
94 1 -1.1104 9.36847 7.08969 1.12049
81 2 2.2208 10.7241 14.173 7.96132
378 2 2.2208 10.7088 16.9708 -0.275444
604 2 2.2208 2.3233 8.59014 -0.393009
301 2 2.2208 13.5515 2.79183 5.44623
305 2 2.2208 13.6102 5.72627 2.50961
9065 2 2.2208 13.4515 -2.85764 11.0644
55 2 2.2208 5.05645 11.3208 5.28556
61 1 -1.1104 0.879178 10.0472 0.939384
66 2 2.2208 5.18733 8.31903 2.55915
68 1 -1.1104 0.877218 10.1438 3.88983
73 2 2.2208 2.17246 11.4216 2.49822
75 2 2.2208 2.32765 8.46918 5.3736
77 1 -1.1104 3.68467 9.84887 1.27283
80 1 -1.1104 3.66884 9.78055 3.94811
107 1 -1.1104 0.629625 12.7414 1.04833
113 1 -1.1104 0.651949 12.9312 3.83021
123 1 -1.1104 3.41402 12.7223 1.23752
128 1 -1.1104 3.71857 12.6189 3.93018
110 1 -1.1104 6.19849 12.4205 1.09278
115 1 -1.1104 6.42071 12.7502 3.89055
70 1 -1.1104 6.59313 10.0231 4.01636
64 1 -1.1104 6.54377 9.81613 0.951254
111 1 -1.1104 6.4464 12.6715 6.56615
570 2 2.2208 7.83808 3.00772 -0.36965
8704 2 2.2208 10.6627 -5.72773 -0.327355
538 2 2.2208 5.00825 0.239812 -0.196776
8172 2 2.2208 10.4413 -5.52715 11.051
85 2 2.2208 10.7512 11.3999 5.30383
89 1 -1.1104 12.1482 10.0263 1.11103
91 2 2.2208 10.7444 8.58389 2.59626
93 1 -1.1104 12.0659 10.1751 3.82903
96 2 2.2208 7.85219 11.2425 2.54289
98 2 2.2208 7.92089 8.44953 5.47193
100 1 -1.1104 9.56207 10.0177 1.11407
103 1 -1.1104 9.35065 9.7733 4.03611
142 1 -1.1104 12.2001 12.8148 0.845184
146 1 -1.1104 12.3632 12.7044 4.07584
153 1 -1.1104 9.2402 12.8352 1.34217
158 1 -1.1104 9.34529 12.7528 3.76504
154 1 -1.1104 9.3435 12.8468 6.57397
9063 2 2.2208 13.7157 8.50777 5.33917
233 1 -1.1104 9.18471 15.5716 12.5126
603 2 2.2208 5.0949 5.87904 -0.206677
119 2 2.2208 4.8027 14.1054 2.52922
130 2 2.2208 2.28319 14.2291 5.40148
106 2 2.2208 5.05481 16.9554 5.46028
109 1 -1.1104 0.748409 18.4935 0.903559
114 1 -1.1104 0.604305 18.7197 3.94339
116 1 -1.1104 0.962185 15.7087 1.04049
120 2 2.2208 5.04146 20.0912 2.42226
121 1 -1.1104 0.32798 15.5203 3.89019
125 1 -1.1104 3.61792 18.467 1.03969
127 2 2.2208 2.05154 17.2035 2.42623
129 1 -1.1104 3.50467 18.341 3.77633
131 2 2.2208 2.33563 19.8791 5.20223
132 1 -1.1104 3.38114 15.6063 1.04049
134 1 -1.1104 3.37029 15.4365 3.77817
122 1 -1.1104 6.27078 15.5546 3.92321
126 1 -1.1104 3.66607 18.5067 6.42118
140 1 -1.1104 6.22638 15.4252 1.00633
138 1 -1.1104 6.5627 18.1674 0.906687
112 1 -1.1104 6.38055 18.2915 6.74908
133 1 -1.1104 3.64733 15.6904 6.68515
53 1 -1.1104 12.0592 15.542 12.3479
9061 2 2.2208 13.5254 19.7826 5.25815
150 2 2.2208 10.7841 14.1729 2.3381
139 1 -1.1104 6.29023 18.4562 3.9012
160 2 2.2208 7.80674 14.0123 5.26881
141 2 2.2208 10.4254 16.897 4.98857
144 1 -1.1104 12.0935 18.4637 1.11433
147 1 -1.1104 12.0749 18.4221 3.76102
148 1 -1.1104 11.9553 15.6138 1.18481
151 2 2.2208 10.7105 19.7907 2.42703
152 1 -1.1104 12.1258 15.3491 3.86162
155 1 -1.1104 9.39508 18.2806 1.14756
157 2 2.2208 7.68126 16.9631 2.46117
159 1 -1.1104 9.17572 18.5296 3.8466
161 2 2.2208 7.67414 19.9272 5.26019
162 1 -1.1104 9.19977 15.5125 1.07483
164 1 -1.1104 9.15884 15.5321 3.81517
572 2 2.2208 2.20057 19.9459 -0.203189
50 1 -1.1104 11.911 18.1736 9.60233
9029 2 2.2208 13.4888 19.5709 10.6656
170 1 -1.1104 0.807342 -1.46258 6.74246
168 1 -1.1104 6.44954 -4.22815 6.7907
171 1 -1.1104 6.43442 -1.149 6.68283
137 1 -1.1104 9.21472 18.3061 9.60001
172 1 -1.1104 3.67868 -4.2605 6.90017
174 1 -1.1104 3.70864 -1.35072 6.93547
166 1 -1.1104 0.904554 -4.1418 6.76648
175 2 2.2208 5.13863 -0.0587425 10.9927
176 1 -1.1104 0.792101 -4.34452 12.6288
180 1 -1.1104 0.884899 -4.08691 9.71147
184 1 -1.1104 0.666782 -1.36566 12.3998
186 2 2.2208 5.19335 -2.9448 8.19922
188 1 -1.1104 0.888806 -1.54661 9.76254
190 1 -1.1104 3.53469 -4.58693 12.4619
192 2 2.2208 2.4732 0.187409 8.42084
193 1 -1.1104 3.71872 -4.35491 9.64662
195 2 2.2208 2.34011 -2.92932 11.1486
197 1 -1.1104 3.39643 -1.53861 12.7034
198 1 -1.1104 3.91228 -1.67745 9.82112
182 1 -1.1104 6.50722 -4.32797 9.67598
189 1 -1.1104 6.66177 -1.44854 9.54303
178 1 -1.1104 6.75541 -4.09348 12.4399
308 2 2.2208 13.4939 14.0019 10.7491
9048 2 2.2208 13.4529 16.9617 2.38269
8334 2 2.2208 7.93254 -5.70248 2.61311
8173 2 2.2208 7.74395 -5.65837 8.19472
513 2 2.2208 7.93575 19.6546 -0.309275
208 1 -1.1104 9.35405 -4.12962 6.62794
205 1 -1.1104 12.1134 -4.09122 6.64942
185 1 -1.1104 6.08785 -1.37233 12.3385
211 2 2.2208 10.6288 0.0472327 11.0876
212 1 -1.1104 12.0094 -4.0804 12.3643
214 1 -1.1104 12.1487 -4.22965 9.60959
216 1 -1.1104 12.1053 -1.31022 12.2808
217 2 2.2208 10.6292 -2.80378 8.04975
219 1 -1.1104 12.0394 -1.49028 9.58794
220 1 -1.1104 9.28806 -4.05754 12.6103
222 2 2.2208 7.90841 -0.0134553 8.25662
223 1 -1.1104 9.23773 -4.20975 9.44916
225 2 2.2208 8.04301 -2.73622 11.0153
227 1 -1.1104 9.29049 -1.26509 12.4337
228 1 -1.1104 9.35519 -1.54614 9.56892
306 2 2.2208 13.4497 -0.0677522 8.29992
605 2 2.2208 5.01035 11.2163 -0.355878
105 1 -1.1104 9.21809 18.4109 12.2662
236 1 -1.1104 0.46864 4.30553 6.69171
167 1 -1.1104 0.899204 1.28769 6.93851
239 1 -1.1104 3.42558 4.33664 7.0753
169 1 -1.1104 6.45132 1.72086 6.84975
235 1 -1.1104 6.41692 7.11609 6.51579
173 1 -1.1104 3.69389 1.57592 6.74433
238 1 -1.1104 3.68046 7.24545 6.77307
177 1 -1.1104 0.92614 1.72156 12.6927
181 1 -1.1104 0.791147 1.4698 9.55984
187 2 2.2208 4.99733 2.96764 8.16938
191 1 -1.1104 3.65258 1.26549 12.3506
194 1 -1.1104 3.95553 1.44492 9.32682
196 2 2.2208 2.20647 2.78437 11.0589
240 2 2.2208 5.1917 5.63406 10.983
246 1 -1.1104 0.852218 4.3735 12.3997
251 1 -1.1104 0.757864 4.27051 9.60455
255 1 -1.1104 3.53971 7.11011 12.4386
256 2 2.2208 2.15678 5.73595 8.20097
258 1 -1.1104 3.89688 6.92254 9.60733
260 1 -1.1104 3.64109 4.22863 12.352
262 1 -1.1104 3.50374 4.23374 9.54578
244 1 -1.1104 0.781779 7.19866 9.65943
242 1 -1.1104 0.898341 7.13709 12.7113
243 1 -1.1104 6.47022 7.0026 12.2397
183 1 -1.1104 6.68472 1.30134 9.92237
248 1 -1.1104 6.45942 4.23402 12.3996
245 1 -1.1104 6.69312 7.17354 9.35907
253 1 -1.1104 6.54093 4.35008 9.74016
179 1 -1.1104 6.41136 1.51672 12.6677
265 1 -1.1104 12.2759 7.12941 6.86882
209 1 -1.1104 9.34684 1.56028 6.82902
206 1 -1.1104 12.0482 1.44376 6.9378
269 1 -1.1104 9.51546 4.26045 6.80335
17324 2 2.2208 13.5623 -5.59701 8.14311
8902 2 2.2208 13.6251 2.83303 11.0743
266 1 -1.1104 12.3259 4.13024 7.03935
267 1 -1.1104 9.29771 7.04622 6.73909
213 1 -1.1104 12.2867 1.51389 12.5966
215 1 -1.1104 11.9719 1.37969 9.73375
218 2 2.2208 10.8523 2.86838 8.22513
221 1 -1.1104 9.32861 1.54407 12.4376
224 1 -1.1104 9.21639 1.3459 9.67268
226 2 2.2208 8.03968 2.95439 10.954
268 1 -1.1104 9.49542 4.24117 9.56819
271 1 -1.1104 9.25433 4.49189 12.3128
275 2 2.2208 8.09733 5.6765 8.25357
276 2 2.2208 10.7833 5.75917 10.9303
280 1 -1.1104 12.0024 4.15235 12.5425
283 1 -1.1104 12.2615 4.31802 9.9271
279 1 -1.1104 12.2283 7.14059 9.48947
278 1 -1.1104 12.2578 6.91474 12.5991
273 1 -1.1104 9.55206 7.31848 9.56605
285 1 -1.1104 9.51133 7.26146 12.2412
628 2 2.2208 10.6787 5.77762 -0.26611
78 1 -1.1104 3.63732 10.0076 6.86617
124 1 -1.1104 3.58802 12.8542 6.64637
62 1 -1.1104 0.75112 9.97553 6.68313
108 1 -1.1104 0.939865 12.7247 6.63785
241 2 2.2208 5.10438 11.14 10.7803
247 1 -1.1104 0.799495 9.88582 12.2294
250 2 2.2208 5.18604 8.51452 8.15467
252 1 -1.1104 1.02504 9.9502 9.59096
257 2 2.2208 2.28751 11.354 8.1401
259 2 2.2208 2.21386 8.44347 11.0248
261 1 -1.1104 3.59089 9.98723 12.2912
263 1 -1.1104 3.82426 9.65967 9.54201
204 1 -1.1104 3.73667 12.8402 9.44036
287 1 -1.1104 3.55422 12.7102 12.3454
294 1 -1.1104 0.811295 12.9899 9.36482
299 1 -1.1104 0.693229 12.5915 12.1953
65 1 -1.1104 6.39166 9.88893 6.68411
290 1 -1.1104 6.47289 12.6471 9.66795
254 1 -1.1104 6.43774 9.85204 9.60208
249 1 -1.1104 6.37165 10.0386 12.3714
540 2 2.2208 2.47111 3.10411 -0.246145
309 2 2.2208 13.4737 8.49068 10.9418
90 1 -1.1104 12.1524 9.81689 6.501
101 1 -1.1104 9.24499 9.9848 6.70638
302 2 2.2208 13.5245 11.1902 7.891
143 1 -1.1104 12.0992 12.6537 6.73239
297 1 -1.1104 6.48071 12.8942 12.4581
264 1 -1.1104 9.20161 10.024 9.30236
270 1 -1.1104 9.08947 10.0171 12.1846
272 2 2.2208 7.90365 8.39266 11.0417
274 2 2.2208 7.84576 11.4014 8.21111
277 2 2.2208 10.6727 11.4286 10.8979
281 1 -1.1104 11.944 9.71529 12.0908
282 2 2.2208 10.8924 8.51573 8.11478
284 1 -1.1104 12.1558 9.90149 9.34109
26 1 -1.1104 12.1628 12.5062 12.481
49 1 -1.1104 11.9501 12.5964 9.57201
104 1 -1.1104 9.16375 12.8756 12.3864
136 1 -1.1104 9.20003 12.84 9.49119
149 1 -1.1104 12.0232 15.6291 6.75701
135 2 2.2208 7.99035 16.9004 8.13947
296 1 -1.1104 6.28801 18.6081 12.4067
295 2 2.2208 5.14824 14.2025 8.0533
30 2 2.2208 2.20707 14.086 10.8772
288 1 -1.1104 6.38021 18.2256 9.48878
117 1 -1.1104 0.816523 15.3933 6.819
28 1 -1.1104 0.682769 18.4497 6.75011
292 1 -1.1104 0.826866 15.667 9.47234
291 1 -1.1104 0.827991 18.5777 9.62405
300 2 2.2208 5.05546 17.0447 11.0034
298 1 -1.1104 0.984233 18.3375 12.5034
293 2 2.2208 4.98385 20.0026 8.06395
51 2 2.2208 2.09893 19.6292 10.9459
52 1 -1.1104 3.8255 15.7296 12.2702
202 1 -1.1104 0.8708 15.4617 12.4758
230 1 -1.1104 3.51811 18.5195 9.22791
231 1 -1.1104 3.81198 15.7579 9.29418
232 2 2.2208 2.32503 17.0508 7.97248
286 1 -1.1104 3.61509 18.4659 12.2904
203 1 -1.1104 6.62547 15.8233 12.3472
118 1 -1.1104 6.48683 15.4872 6.68279
289 1 -1.1104 6.41926 15.4765 9.48396
9062 2 2.2208 13.4549 -2.59955 5.3465
199 2 2.2208 7.79361 14.1265 10.8194
29 1 -1.1104 9.26811 15.4977 9.53849
83 1 -1.1104 12.0222 15.4966 9.55059
229 2 2.2208 7.83219 19.6791 10.7435
27 1 -1.1104 12.1968 18.5852 12.362
163 1 -1.1104 9.40215 15.5844 6.5959
156 1 -1.1104 9.10485 18.425 6.50727
629 2 2.2208 7.96395 8.42607 -0.348197
25 2 2.2208 10.6686 16.8295 10.9795
82 2 2.2208 10.634 19.6982 8.06704
165 2 2.2208 13.6285 5.69446 8.24396
544 2 2.2208 2.2117 14.1746 -0.279733
9051 2 2.2208 -0.502148 -2.85935 8.20906
9057 2 2.2208 13.7183 13.987 5.39936
8463 2 2.2208 5.16337 -5.44695 -0.405632
569 2 2.2208 7.69324 -2.65827 -0.0699082
17351 2 2.2208 13.5677 -5.46325 2.40336
9406 2 2.2208 13.4045 19.8086 -0.449678
662 2 2.2208 13.6364 8.697 -0.240995
9407 2 2.2208 13.7577 14.1906 -0.37068
311 2 2.2208 5.02525 0.0499949 16.7553
312 1 -1.1104 0.985183 -4.06057 18.1831
316 1 -1.1104 0.835143 -4.48628 15.4373
324 1 -1.1104 0.6664 -1.07987 18.0307
326 2 2.2208 5.10513 -2.66265 19.5134
328 1 -1.1104 0.819494 -1.58978 15.3123
332 1 -1.1104 3.72907 -4.25317 18.0767
334 2 2.2208 2.19891 0.128485 19.6164
335 1 -1.1104 3.44084 -4.11173 15.0836
339 2 2.2208 2.13608 -2.77912 16.7714
341 1 -1.1104 3.58433 -1.39267 18.2968
342 1 -1.1104 3.57589 -1.33964 15.4238
325 1 -1.1104 6.57497 -1.14723 17.8246
314 1 -1.1104 6.4505 -4.18522 18.2061
330 1 -1.1104 6.22669 -1.40617 15.1158
320 1 -1.1104 6.49205 -3.99736 15.347
485 2 2.2208 5.17865 14.2195 13.7711
17733 2 2.2208 13.4592 -5.6195 13.9044
352 2 2.2208 2.25037 0.0420064 13.9596
678 2 2.2208 13.5836 11.2911 25.0642
354 2 2.2208 10.8573 0.132644 16.6471
355 1 -1.1104 11.9826 -4.19487 17.7806
357 1 -1.1104 12.3437 -4.10207 15.2005
361 1 -1.1104 12.1223 -1.14675 18.0392
362 2 2.2208 10.6145 -2.75455 19.559
364 1 -1.1104 11.9602 -1.30735 15.1577
366 1 -1.1104 9.09453 -4.18324 18.1481
368 2 2.2208 7.84595 0.130716 19.325
369 1 -1.1104 9.31816 -4.20954 15.4069
373 2 2.2208 7.8416 -2.60572 16.7341
375 1 -1.1104 9.29203 -1.24429 17.9967
376 1 -1.1104 9.11625 -1.48402 15.0916
9405 2 2.2208 13.4657 19.7568 22.0235
672 2 2.2208 13.6407 19.7138 16.6231
358 1 -1.1104 12.1525 -4.32932 20.6177
8569 2 2.2208 2.26013 -5.60026 25.0374
8459 2 2.2208 5.12557 -5.52919 22.2449
665 2 2.2208 13.5788 5.83612 19.5528
483 2 2.2208 2.21499 16.9701 13.7551
385 2 2.2208 10.7402 -2.77487 13.8938
8460 2 2.2208 7.9296 -5.59844 24.9887
8464 2 2.2208 7.92878 -5.47995 14.0067
333 1 -1.1104 3.50725 1.46036 17.9365
313 1 -1.1104 0.959481 1.64967 18.3202
318 1 -1.1104 0.864473 1.46294 15.3644
327 2 2.2208 4.87581 2.9013 19.4268
337 1 -1.1104 3.83131 1.70246 15.349
340 2 2.2208 2.21278 3.00251 16.6715
387 2 2.2208 5.09912 5.93046 16.6076
389 1 -1.1104 1.14835 7.29751 18.0367
391 1 -1.1104 0.785598 7.28349 15.205
395 1 -1.1104 0.711548 4.40507 18.0866
400 1 -1.1104 0.747041 4.40137 15.3243
409 2 2.2208 2.13429 5.88886 19.3626
411 1 -1.1104 3.72506 7.29756 15.2743
414 1 -1.1104 3.71462 4.36246 18.0542
416 1 -1.1104 3.581 4.50367 15.3394
408 1 -1.1104 3.79503 7.24792 17.8739
401 1 -1.1104 0.985645 4.42484 20.7385
417 1 -1.1104 3.63828 4.3215 20.7756
315 1 -1.1104 6.49069 1.444 18.1102
390 1 -1.1104 6.6633 7.21147 17.9683
322 1 -1.1104 6.5173 1.41138 15.5225
393 1 -1.1104 6.60295 7.14353 15.1162
394 1 -1.1104 6.50647 7.19985 20.8111
651 2 2.2208 13.4402 -0.0471931 13.7652
397 1 -1.1104 6.48418 4.17138 18.0709
404 1 -1.1104 6.36862 4.46771 15.4132
356 1 -1.1104 12.5939 1.58383 18.0215
359 1 -1.1104 12.0317 1.64612 15.3147
363 2 2.2208 10.7286 2.7611 19.4375
367 1 -1.1104 9.29604 1.55799 18.159
371 1 -1.1104 9.30251 1.34526 15.4435
374 2 2.2208 7.85048 2.96574 16.7305
423 2 2.2208 10.7403 5.70171 16.795
428 1 -1.1104 12.296 4.41071 18.3514
431 1 -1.1104 12.1293 4.36665 15.2451
435 1 -1.1104 9.15605 7.22171 18.1833
436 2 2.2208 7.85757 5.71611 19.4588
441 1 -1.1104 9.37558 4.35335 18.1135
443 1 -1.1104 9.32507 4.30729 15.2064
426 1 -1.1104 12.2717 7.06499 15.4067
425 1 -1.1104 12.0843 7.21454 18.1432
438 1 -1.1104 9.26695 7.05338 15.3079
649 2 2.2208 13.6884 2.95362 16.5446
420 2 2.2208 2.30438 5.8145 13.7337
439 1 -1.1104 9.26672 7.0297 20.895
372 1 -1.1104 9.10409 1.3432 21.0716
663 2 2.2208 13.5293 5.58799 14.1297
606 2 2.2208 7.96508 16.9948 24.9171
388 2 2.2208 5.28073 11.3357 16.5668
396 1 -1.1104 0.98655 10.1924 17.9264
399 2 2.2208 5.06591 8.43921 19.523
402 1 -1.1104 0.931298 9.84556 15.1838
410 2 2.2208 2.31768 11.6417 19.3757
413 2 2.2208 2.39372 8.6732 16.5168
415 1 -1.1104 3.67817 10.1367 18.0664
418 1 -1.1104 3.92336 10.0721 15.0283
451 1 -1.1104 0.941604 12.7798 18.0275
455 1 -1.1104 0.735166 12.8216 15.0819
471 1 -1.1104 3.81371 12.7975 17.7904
474 1 -1.1104 3.58673 12.9064 14.944
459 1 -1.1104 6.64126 12.9168 15.2513
406 1 -1.1104 6.68724 9.9703 15.259
8479 2 2.2208 7.74055 -5.68438 19.2716
419 1 -1.1104 3.43389 9.94246 20.8809
475 1 -1.1104 3.79521 12.9706 21.0094
453 1 -1.1104 6.43085 12.7265 18.048
398 1 -1.1104 6.53394 9.78437 18.1731
424 2 2.2208 10.5219 11.3039 16.5373
429 1 -1.1104 12.1993 9.9298 18.1904
430 2 2.2208 10.6657 8.51415 19.4272
433 1 -1.1104 11.9752 9.89621 15.3708
437 2 2.2208 7.83598 11.3467 19.3622
440 2 2.2208 7.97904 8.53123 16.7426
442 1 -1.1104 9.29953 10.0356 17.9953
445 1 -1.1104 9.29477 9.98001 15.0458
487 1 -1.1104 12.0778 12.8164 17.9791
489 1 -1.1104 12.1651 12.9089 15.3155
498 1 -1.1104 9.15852 12.9064 18.0908
501 1 -1.1104 9.47888 12.8649 15.1911
502 1 -1.1104 9.37114 12.6759 20.7224
490 1 -1.1104 12.1267 12.7676 20.7827
447 2 2.2208 8.0658 5.6562 13.8157
448 2 2.2208 10.8221 8.40749 13.8325
449 2 2.2208 7.9003 11.4407 13.6836
8493 2 2.2208 10.6778 -5.6592 16.9766
465 2 2.2208 5.0868 14.2886 19.5362
478 2 2.2208 2.348 14.2085 16.4826
450 2 2.2208 4.96229 17.0027 16.5718
452 1 -1.1104 0.846753 18.4629 18.0629
457 1 -1.1104 0.583503 18.4746 15.3715
463 1 -1.1104 0.713263 15.4437 18.0722
466 2 2.2208 4.80106 19.8533 19.5858
467 1 -1.1104 0.784544 15.5995 15.3029
472 1 -1.1104 3.65348 18.3897 18.1201
473 2 2.2208 2.04583 17.035 19.4291
476 1 -1.1104 3.46476 18.5585 15.0876
479 2 2.2208 2.02409 19.8641 16.6834
480 1 -1.1104 3.48383 15.6495 18.1472
481 1 -1.1104 3.62162 15.6021 15.2507
454 1 -1.1104 6.5104 18.3038 18.0408
469 1 -1.1104 6.48283 15.7648 15.3483
464 1 -1.1104 6.20422 15.6327 18.2612
494 2 2.2208 10.7216 14.2071 19.3159
353 2 2.2208 5.18201 3.04942 13.9833
505 2 2.2208 7.80184 14.3588 16.8203
461 1 -1.1104 6.41175 18.473 15.1773
486 2 2.2208 10.6972 17.0019 16.4938
488 1 -1.1104 12.0743 18.4952 18.0818
491 1 -1.1104 12.1672 18.4214 15.0405
493 1 -1.1104 12.0132 15.7262 17.9236
495 2 2.2208 10.6738 19.8052 19.4821
496 1 -1.1104 12.0928 15.6469 15.1462
499 1 -1.1104 9.29318 18.4224 18.0878
500 2 2.2208 7.66246 17.0056 19.4528
503 1 -1.1104 9.41773 18.5385 15.1206
506 2 2.2208 7.80417 19.7777 16.6672
507 1 -1.1104 9.10084 15.7864 18.1605
508 1 -1.1104 9.07194 15.5865 15.2753
657 2 2.2208 13.4853 16.978 13.7644
504 1 -1.1104 9.05086 18.434 20.8188
8535 2 2.2208 4.89492 -5.58788 16.6031
509 1 -1.1104 9.36703 15.5388 20.7449
421 2 2.2208 5.19177 8.56103 13.6169
671 2 2.2208 13.5307 17.0052 19.287
336 1 -1.1104 3.71392 -4.03062 20.7427
343 1 -1.1104 3.66417 -1.29528 21.0437
329 1 -1.1104 0.641052 -1.24648 20.8047
317 1 -1.1104 0.727735 -3.79672 20.9416
321 1 -1.1104 6.55961 -3.98555 21.0969
331 1 -1.1104 6.57352 -1.16709 20.7585
386 2 2.2208 10.8021 2.86963 13.9057
514 2 2.2208 5.16103 0.0611955 22.3121
515 1 -1.1104 0.810206 -3.93497 23.6598
519 1 -1.1104 0.750643 -4.17103 26.4891
523 1 -1.1104 0.692269 -1.1364 23.8294
525 2 2.2208 5.18934 -2.75908 25.2184
527 1 -1.1104 0.827215 -1.32781 26.6102
529 1 -1.1104 3.55117 -4.1447 23.7746
531 2 2.2208 2.16833 0.190641 25.2142
532 1 -1.1104 3.73864 -4.06114 26.5851
534 2 2.2208 2.20586 -2.50155 22.4717
536 1 -1.1104 3.5544 -1.39668 23.9388
537 1 -1.1104 3.56268 -0.997583 26.8441
528 1 -1.1104 6.54344 -1.31234 26.6096
517 1 -1.1104 6.42702 -4.27388 23.8249
521 1 -1.1104 6.67195 -3.90814 26.5698
524 1 -1.1104 6.39227 -1.35146 23.8085
670 2 2.2208 13.5771 14.1456 16.6622
8531 2 2.2208 2.0887 -5.79183 13.8442
377 1 -1.1104 9.50101 -1.4591 21.1586
484 2 2.2208 5.0533 20.101 13.8289
549 1 -1.1104 12.0864 15.6818 23.5798
664 2 2.2208 13.6373 8.67465 16.6397
365 1 -1.1104 12.3447 -1.4426 20.799
370 1 -1.1104 9.25669 -4.20466 20.9029
550 2 2.2208 10.6426 0.133241 22.4298
551 1 -1.1104 12.2715 -4.11139 23.8219
553 1 -1.1104 12.1765 -4.17952 26.6335
555 1 -1.1104 11.9252 -1.44766 23.4711
556 2 2.2208 10.581 -2.64287 25.0578
558 1 -1.1104 12.1826 -1.36878 26.3757
559 1 -1.1104 9.18789 -3.94426 23.7867
561 2 2.2208 7.69407 0.181485 25.2031
562 1 -1.1104 9.37251 -4.13204 26.6773
564 2 2.2208 7.83013 -2.67926 22.4705
566 1 -1.1104 9.15204 -1.2857 23.8482
567 1 -1.1104 9.39729 -1.50102 26.8301
384 2 2.2208 7.62644 -0.0967859 13.9469
412 1 -1.1104 3.74269 7.21206 20.9278
338 1 -1.1104 3.54112 1.56915 20.6935
319 1 -1.1104 0.50985 1.43349 21.2584
392 1 -1.1104 0.823704 7.31795 20.9419
323 1 -1.1104 6.28442 1.36861 20.9708
516 1 -1.1104 0.73788 1.64833 24.0666
520 1 -1.1104 0.918788 1.50012 26.7933
526 2 2.2208 4.86115 3.00283 24.9782
530 1 -1.1104 3.50776 1.26088 23.3455
533 1 -1.1104 3.57067 1.82493 26.3556
535 2 2.2208 2.24026 2.95276 22.3623
579 2 2.2208 5.08981 5.75702 22.2785
585 1 -1.1104 0.732485 4.20611 23.6523
590 1 -1.1104 0.673296 4.37698 26.5257
595 2 2.2208 2.1081 5.73981 25.0951
599 1 -1.1104 3.6486 4.37417 23.6876
601 1 -1.1104 3.5428 4.44254 26.4657
594 1 -1.1104 3.90601 7.29255 23.6436
583 1 -1.1104 0.726349 7.2694 26.8176
597 1 -1.1104 3.75538 7.27843 26.6516
581 1 -1.1104 1.04632 7.27992 23.9774
587 1 -1.1104 6.35532 4.31496 23.5125
405 1 -1.1104 6.46657 4.26038 20.8333
518 1 -1.1104 6.20258 1.35747 23.8324
592 1 -1.1104 6.4573 4.17534 26.406
522 1 -1.1104 6.26145 1.74268 26.7357
582 1 -1.1104 6.52237 7.11285 23.5163
584 1 -1.1104 6.59957 7.01571 26.6632
666 2 2.2208 13.6009 11.3067 19.4644
360 1 -1.1104 12.1122 1.31656 20.9738
444 1 -1.1104 9.24385 4.22643 20.8959
427 1 -1.1104 12.0021 7.12033 20.9342
432 1 -1.1104 12.2237 4.2925 20.9097
656 2 2.2208 13.569 -2.71812 22.2581
552 1 -1.1104 12.0021 1.62577 23.6438
554 1 -1.1104 12.3096 1.43742 26.3996
557 2 2.2208 10.6899 2.80223 25.1051
560 1 -1.1104 9.01755 1.70838 23.8835
563 1 -1.1104 9.30023 1.4782 26.657
565 2 2.2208 7.71514 2.7967 22.269
611 1 -1.1104 9.32298 4.46279 26.3673
613 1 -1.1104 9.30582 4.41424 23.7112
617 2 2.2208 7.87936 5.611 25.1176
618 2 2.2208 10.8717 5.69903 22.306
621 1 -1.1104 11.8674 7.50714 26.5413
622 1 -1.1104 12.113 4.31172 23.7806
625 1 -1.1104 11.9816 4.46269 26.6642
615 1 -1.1104 9.16721 7.28273 26.4679
627 1 -1.1104 9.44746 7.17795 23.7264
620 1 -1.1104 12.2365 6.98048 23.833
403 1 -1.1104 0.793884 10.0665 20.7725
407 1 -1.1104 6.60518 9.98406 20.7205
460 1 -1.1104 6.67901 12.6361 20.9971
456 1 -1.1104 0.966187 12.8127 20.8524
636 1 -1.1104 3.67604 12.8974 23.5354
640 1 -1.1104 0.874254 12.6379 26.5422
580 2 2.2208 5.15262 11.4627 22.1044
586 1 -1.1104 0.802315 9.98477 23.7556
589 2 2.2208 5.1409 8.64637 25.0409
591 1 -1.1104 0.877913 9.91139 26.4005
596 2 2.2208 2.35762 11.3171 25.0475
598 2 2.2208 2.28476 8.56709 22.3556
600 1 -1.1104 3.88981 10.031 23.5824
602 1 -1.1104 3.51208 9.87316 26.2892
646 1 -1.1104 1.0005 12.7586 23.7842
379 1 -1.1104 3.69453 12.8173 26.5878
593 1 -1.1104 6.27211 9.88029 26.5087
635 1 -1.1104 6.39481 12.7338 26.5741
588 1 -1.1104 6.53643 10.142 23.7392
644 1 -1.1104 6.55238 12.9271 23.826
667 2 2.2208 13.4433 11.3316 13.667
512 2 2.2208 7.94727 17.2622 13.6608
434 1 -1.1104 12.1026 10.147 21.0184
446 1 -1.1104 9.39597 9.83644 20.7864
608 1 -1.1104 9.15304 12.9982 26.7743
577 1 -1.1104 9.23662 12.6955 23.5662
547 1 -1.1104 12.1396 13.0468 26.4671
542 1 -1.1104 11.8777 12.9929 23.7225
610 1 -1.1104 8.96788 10.2556 26.5176
612 1 -1.1104 9.22928 10.1078 23.7921
614 2 2.2208 7.92039 8.58072 22.2635
616 2 2.2208 7.82736 11.5227 25.0926
619 2 2.2208 10.6205 11.3681 22.2067
623 1 -1.1104 11.9361 10.062 23.8186
624 2 2.2208 10.5764 8.75977 25.2802
626 1 -1.1104 12.0801 10.1279 26.601
609 1 -1.1104 9.30427 18.4251 26.663
458 1 -1.1104 0.843201 18.2629 20.9648
482 1 -1.1104 3.60585 15.6851 20.924
468 1 -1.1104 0.658656 15.51 20.7722
462 1 -1.1104 6.39927 18.3848 20.7462
470 1 -1.1104 6.43757 15.5161 21.0211
643 2 2.2208 5.04023 14.2163 24.9737
641 1 -1.1104 6.3093 18.5092 23.9594
637 1 -1.1104 6.44163 15.7308 26.4356
477 1 -1.1104 3.52711 18.3571 20.8726
573 2 2.2208 2.13484 14.1994 22.3528
383 1 -1.1104 3.21293 18.7017 26.3168
642 2 2.2208 4.90166 19.9124 25.1651
382 2 2.2208 2.06519 17.0494 25.0341
639 1 -1.1104 0.779773 15.5762 26.5216
647 2 2.2208 4.97306 17.121 22.3359
381 1 -1.1104 3.59346 15.5779 26.503
634 1 -1.1104 3.57266 18.6558 23.6196
638 1 -1.1104 0.588961 18.3406 26.4973
574 2 2.2208 2.2594 19.7828 22.2689
645 1 -1.1104 0.912088 18.4292 23.7625
345 1 -1.1104 3.64724 15.847 24.0067
346 1 -1.1104 0.809703 15.604 23.7084
347 1 -1.1104 6.54988 15.8788 23.5027
607 1 -1.1104 6.2689 18.781 26.7842
511 2 2.2208 10.5949 14.3741 13.8916
9408 2 2.2208 13.4113 17.084 24.9536
351 2 2.2208 4.91004 -2.82294 13.858
576 1 -1.1104 11.9255 15.7251 26.3429
578 1 -1.1104 9.36099 18.5264 23.7459
541 2 2.2208 10.702 16.9947 22.2865
548 1 -1.1104 11.988 18.4667 26.4356
497 1 -1.1104 12.1151 15.6264 20.4879
632 2 2.2208 7.74405 19.8138 22.4413
571 2 2.2208 10.5646 14.0538 25.138
543 1 -1.1104 9.17169 15.6253 26.2995
631 2 2.2208 7.94745 14.3251 22.1968
492 1 -1.1104 12.0701 18.4403 20.6995
575 2 2.2208 10.6938 19.782 25.1153
546 1 -1.1104 12.1624 18.4522 23.4572
633 1 -1.1104 9.28105 15.7411 23.5526
380 2 2.2208 13.6286 0.119994 19.4917
8527 2 2.2208 10.7318 -5.70358 22.3753
658 2 2.2208 13.3986 14.3193 22.0937
681 2 2.2208 13.4943 2.92875 22.1946
9093 2 2.2208 13.5762 -2.73748 16.9729
8534 2 2.2208 2.2667 -5.48453 19.5031
680 2 2.2208 -0.574604 11.5465 22.298
539 2 2.2208 2.37874 -2.74207 28.0244
661 2 2.2208 13.3551 5.58873 25.1619
8422 2 2.2208 13.3711 -5.56121 25.2399
685 2 2.2208 13.3105 8.49892 22.3978
510 2 2.2208 10.659 20.0314 13.9109
677 2 2.2208 13.4424 -2.72132 27.7822
687 2 2.2208 4.84808 22.6481 5.29116
689 1 -1.1104 0.763028 24.3145 1.10188
690 1 -1.1104 0.733333 24.1293 3.68554
691 1 -1.1104 0.869661 21.1501 1.11448
693 2 2.2208 4.99277 25.541 2.5186
694 1 -1.1104 0.766004 21.4286 3.90089
696 1 -1.1104 3.6171 24.1284 1.23692
697 2 2.2208 2.05264 22.6767 2.4732
699 1 -1.1104 3.61415 24.3311 3.96195
700 2 2.2208 2.08355 25.5995 5.00921
701 1 -1.1104 3.66016 21.2925 1.13686
703 1 -1.1104 3.65209 21.3202 4.03396
695 1 -1.1104 0.653972 26.8968 3.84453
704 1 -1.1104 3.50566 26.9005 3.85016
832 1 -1.1104 6.27982 21.2706 6.65582
711 1 -1.1104 6.42046 26.9604 0.970102
708 1 -1.1104 6.47469 24.3036 1.02637
709 1 -1.1104 6.40201 24.0736 3.84545
710 1 -1.1104 6.77307 21.1573 1.04533
712 1 -1.1104 6.2118 21.4187 3.74476
829 1 -1.1104 6.40144 24.1432 6.58116
714 2 2.2208 10.7809 22.6306 5.38283
716 1 -1.1104 12.3027 24.1756 0.8817
717 1 -1.1104 12.0498 24.039 3.79251
718 1 -1.1104 12.2067 21.2498 0.926563
720 2 2.2208 10.5829 25.4076 2.48951
723 1 -1.1104 9.40893 24.0912 1.0916
724 2 2.2208 7.84348 22.7339 2.31649
726 1 -1.1104 9.08089 24.2303 3.86186
727 2 2.2208 7.91027 25.4361 5.20437
728 1 -1.1104 9.29733 21.2815 1.28893
730 1 -1.1104 9.15446 21.253 4.19911
721 1 -1.1104 12.2951 21.392 3.86801
719 1 -1.1104 11.8981 26.8478 3.6795
866 1 -1.1104 9.16421 27.183 6.28395
731 1 -1.1104 9.22171 26.9692 3.51761
861 1 -1.1104 12.0733 24.3656 6.6719
864 1 -1.1104 9.35454 23.9395 6.5375
1141 2 2.2208 4.97258 42.4032 13.6934
1193 2 2.2208 2.09454 25.6793 -0.439899
9721 2 2.2208 13.414 34.1645 2.4042
702 1 -1.1104 3.69545 26.8899 1.08866
692 1 -1.1104 0.864643 27.1783 0.773511
713 1 -1.1104 6.44309 26.7983 3.93734
836 1 -1.1104 3.51783 26.8718 6.65251
688 2 2.2208 4.85927 28.2525 5.304
698 2 2.2208 2.40419 28.3443 2.45546
736 1 -1.1104 0.844858 30.0042 0.684763
739 1 -1.1104 0.87247 29.5109 3.68721
742 1 -1.1104 0.484651 32.6449 0.880564
743 2 2.2208 5.04363 31.1847 2.64205
745 1 -1.1104 0.65817 32.49 3.64274
747 1 -1.1104 3.47572 29.7287 1.04128
750 1 -1.1104 3.67921 29.6717 3.85857
752 2 2.2208 2.06111 31.1502 5.05927
754 1 -1.1104 3.5191 32.7291 1.02925
755 1 -1.1104 3.48102 32.4646 3.68048
881 1 -1.1104 0.789546 29.7124 6.43874
885 1 -1.1104 0.66742 32.4565 6.63666
889 1 -1.1104 3.58447 32.6302 6.45579
883 1 -1.1104 6.25548 29.7793 6.72181
760 1 -1.1104 6.55647 29.7793 3.97033
761 1 -1.1104 6.2078 32.743 1.08742
759 1 -1.1104 6.08236 29.8349 1.03225
746 1 -1.1104 6.37469 32.6434 3.78887
9730 2 2.2208 13.213 39.8468 2.26913
722 1 -1.1104 12.3329 27.4064 5.99034
1212 1 -1.1104 11.862 26.8353 0.929053
729 1 -1.1104 9.10772 26.8599 0.983054
9634 2 2.2208 13.5642 42.6395 10.8716
886 1 -1.1104 6.43828 32.7688 6.38988
715 2 2.2208 10.6197 28.405 4.83894
725 2 2.2208 7.80156 28.2067 2.37687
763 1 -1.1104 11.9966 29.7648 0.943371
765 1 -1.1104 12.1085 29.8185 3.68581
767 1 -1.1104 11.9215 32.5753 0.725255
768 2 2.2208 10.6019 31.2953 2.14887
770 1 -1.1104 11.6541 33.0423 3.20665
771 1 -1.1104 9.09667 29.613 0.898023
774 1 -1.1104 9.3635 29.9369 3.59481
776 2 2.2208 7.98598 31.2856 5.06472
778 1 -1.1104 9.06665 32.534 0.727256
779 1 -1.1104 8.94221 32.7964 3.77088
920 1 -1.1104 9.2189 32.8741 6.48287
917 1 -1.1104 11.842 32.7995 6.04042
1173 2 2.2208 10.5914 42.5292 13.7229
735 2 2.2208 5.00537 34.0316 5.03853
737 1 -1.1104 0.621109 35.5063 1.12987
740 1 -1.1104 0.716811 35.3298 3.85344
744 2 2.2208 4.9716 37.0706 2.41831