ITEM: TIMESTEP
100000
ITEM: NUMBER OF ATOMS
17760
ITEM: BOX BOUNDS pp pp pp
-4.6104466189722343e-01 2.7801044661897311e+01
-5.5557449891117772e+00 3.3363574498911754e+02
-4.6645001759081806e-01 2.7806450017591278e+01
ITEM: ATOMS id type q x y z
1 2 2.2208 5.29483 -0.0295997 5.26788
2 1 -1.1104 1.13885 -4.28639 1.05618
6 1 -1.1104 1.42955 -4.50806 4.09347
10 1 -1.1104 1.13686 -1.35202 1.05892
12 2 2.2208 5.45283 -2.717 2.34286
14 1 -1.1104 1.06244 -1.76704 3.9761
16 1 -1.1104 3.99812 -4.08986 1.23243
18 2 2.2208 2.71095 -0.0699024 2.42368
19 1 -1.1104 3.98522 -4.26321 3.90976
21 2 2.2208 2.78207 -2.92883 5.3508
23 1 -1.1104 3.81851 -1.36249 0.91437
24 1 -1.1104 4.19643 -1.24128 3.62314
172 1 -1.1104 4.16081 -4.19371 6.5937
344 2 2.2208 8.40858 14.1405 -0.543675
4 1 -1.1104 7.0162 -4.15567 0.796237
11 1 -1.1104 6.89266 -1.36885 1.02065
9410 2 2.2208 -0.440045 -0.0062666 -0.216791
9066 2 2.2208 -0.258251 11.3146 5.10123
171 1 -1.1104 7.0219 -1.48317 6.78446
168 1 -1.1104 6.85986 -4.39308 6.74893
568 2 2.2208 11.0533 0.147153 -0.367217
9053 2 2.2208 -0.26289 19.7826 2.40035
9049 2 2.2208 -0.274277 5.56468 10.692
9051 2 2.2208 -0.0559189 -2.62615 7.85391
105 1 -1.1104 9.5372 18.3357 12.1627
15 1 -1.1104 6.79223 -1.36073 3.90384
8 1 -1.1104 6.80271 -4.02825 3.82561
31 2 2.2208 11.0241 0.0847846 5.36046
32 1 -1.1104 12.6515 -4.12925 1.08664
34 1 -1.1104 12.4143 -4.1929 3.74155
36 1 -1.1104 12.6072 -1.21012 0.918682
37 2 2.2208 10.9424 -2.68594 2.43123
39 1 -1.1104 12.41 -1.23602 3.7078
40 1 -1.1104 9.72655 -4.32745 1.0068
42 2 2.2208 8.17176 0.0413562 2.44215
43 1 -1.1104 9.47888 -3.94747 3.89015
45 2 2.2208 8.28253 -2.77253 5.25986
47 1 -1.1104 9.74106 -1.32057 0.998373
48 1 -1.1104 9.64231 -1.41031 3.83231
304 2 2.2208 -0.277792 17.0625 10.5929
25 2 2.2208 10.8569 16.9476 10.8611
201 2 2.2208 -0.300451 8.60083 2.42768
205 1 -1.1104 12.4235 -3.8977 6.59871
421 2 2.2208 5.44198 8.63734 13.7099
9064 2 2.2208 -0.230979 5.71116 5.07375
53 1 -1.1104 12.2916 15.607 12.4502
8172 2 2.2208 10.9912 -5.49359 10.9589
17 1 -1.1104 3.87125 1.4015 0.74711
3 1 -1.1104 1.16205 1.44833 0.901759
7 1 -1.1104 1.15674 1.25332 3.73327
13 2 2.2208 5.42361 2.80763 2.42306
20 1 -1.1104 3.96498 1.38297 3.87883
22 2 2.2208 2.56015 2.94173 5.08969
54 2 2.2208 5.30045 5.76507 4.9912
60 1 -1.1104 1.25748 4.24693 0.803867
67 1 -1.1104 1.191 4.2938 3.69484
72 2 2.2208 2.53643 5.76631 2.36243
76 1 -1.1104 3.93339 4.21229 0.860976
79 1 -1.1104 4.01252 4.34361 3.73722
58 1 -1.1104 1.0931 7.4004 3.67329
71 1 -1.1104 3.87308 7.1188 1.09775
74 1 -1.1104 3.80765 7.15804 3.75335
56 1 -1.1104 0.932511 7.05351 0.90651
5 1 -1.1104 6.84459 1.39826 1.05889
57 1 -1.1104 6.84109 6.95942 0.778524
236 1 -1.1104 1.15917 4.33777 6.39809
239 1 -1.1104 3.78972 4.10313 6.75186
59 1 -1.1104 6.83598 6.96675 3.68365
167 1 -1.1104 1.09624 1.57704 6.43193
63 1 -1.1104 6.95875 4.20248 1.09965
485 2 2.2208 5.40971 14.0401 13.5584
69 1 -1.1104 6.822 4.11745 3.93006
235 1 -1.1104 6.67436 7.16514 6.21684
169 1 -1.1104 6.59346 1.32929 6.62342
9 1 -1.1104 6.78612 1.27911 3.84465
33 1 -1.1104 12.3765 1.57462 1.0445
35 1 -1.1104 12.6459 1.77109 3.73091
38 2 2.2208 11.0639 2.80504 2.41073
41 1 -1.1104 9.73802 1.4731 1.15387
44 1 -1.1104 9.74721 1.37998 4.08263
46 2 2.2208 8.20509 2.63174 5.13843
84 2 2.2208 11.0501 5.54819 4.94598
88 1 -1.1104 12.3814 4.18164 0.825405
92 1 -1.1104 12.5931 4.38563 3.84382
95 2 2.2208 8.28005 5.55412 2.30037
99 1 -1.1104 9.65915 4.19538 1.03457
102 1 -1.1104 9.7108 4.12251 3.67843
87 1 -1.1104 12.209 6.9953 3.64583
97 1 -1.1104 9.68305 6.87185 3.8077
86 1 -1.1104 12.2928 7.33926 0.980826
94 1 -1.1104 9.4651 6.98032 0.999701
206 1 -1.1104 12.4528 1.35726 6.78083
199 2 2.2208 8.24117 14.2148 10.8254
9059 2 2.2208 -0.213258 0.0162152 5.26516
269 1 -1.1104 9.57094 4.36013 6.55964
55 2 2.2208 5.42605 11.1805 5.10764
61 1 -1.1104 1.31703 9.70925 1.10903
66 2 2.2208 5.29654 8.45815 2.28661
68 1 -1.1104 1.33097 10.2132 3.80273
73 2 2.2208 2.658 11.2132 2.11509
75 2 2.2208 2.58249 8.65142 5.06535
77 1 -1.1104 4.10231 9.87826 0.892709
80 1 -1.1104 3.98023 9.9692 3.59333
107 1 -1.1104 1.11167 12.6809 0.828912
113 1 -1.1104 1.20694 12.9732 3.55039
123 1 -1.1104 3.91643 12.7388 0.843369
128 1 -1.1104 3.77748 12.825 3.37463
110 1 -1.1104 6.99125 12.5706 0.664171
70 1 -1.1104 6.67614 9.77948 3.62552
108 1 -1.1104 1.19817 12.777 6.33807
64 1 -1.1104 6.90168 9.81185 0.886289
545 2 2.2208 5.44006 16.9423 -0.46318
510 2 2.2208 10.8467 19.6397 13.5074
8334 2 2.2208 8.1686 -5.51651 2.44245
156 1 -1.1104 9.5746 18.333 6.42133
570 2 2.2208 8.2549 2.86097 -0.478153
9052 2 2.2208 -0.147546 0.081669 10.8384
115 1 -1.1104 6.77 12.8093 3.43018
85 2 2.2208 11.0427 11.2344 5.10174
89 1 -1.1104 12.3669 10.0156 0.857003
91 2 2.2208 10.9222 8.54687 2.30735
93 1 -1.1104 12.3554 9.92732 3.73191
96 2 2.2208 8.40008 11.3921 2.13998
98 2 2.2208 8.34978 8.37806 5.2164
100 1 -1.1104 9.47006 9.81895 0.929679
103 1 -1.1104 9.43704 9.81236 3.71438
142 1 -1.1104 12.5177 12.9361 1.10208
146 1 -1.1104 12.3421 12.6566 3.64336
153 1 -1.1104 9.68093 12.7558 0.87793
158 1 -1.1104 9.54509 12.6991 3.61052
154 1 -1.1104 9.79574 12.6579 6.61098
101 1 -1.1104 9.6647 9.88157 6.53455
143 1 -1.1104 12.463 12.9436 6.53268
90 1 -1.1104 12.4094 9.92108 6.65455
9050 2 2.2208 -0.0960595 8.70006 7.8188
310 2 2.2208 -0.160092 11.3044 10.8959
200 2 2.2208 -0.288463 14.1456 2.3759
569 2 2.2208 8.15983 -2.52717 -0.422802
119 2 2.2208 5.41616 14.0276 2.28551
130 2 2.2208 2.65434 14.2115 4.81091
106 2 2.2208 5.40363 16.9185 5.11286
109 1 -1.1104 1.10601 18.416 0.902679
114 1 -1.1104 1.13785 18.425 3.74931
116 1 -1.1104 1.20434 15.5253 0.946277
120 2 2.2208 5.38608 19.9631 2.2812
121 1 -1.1104 1.01188 15.6932 3.50546
125 1 -1.1104 4.25915 18.4798 0.822882
127 2 2.2208 2.65612 17.051 2.3466
129 1 -1.1104 3.77403 18.5901 3.56723
131 2 2.2208 2.69329 19.8735 4.97681
132 1 -1.1104 4.33016 15.5853 0.888677
134 1 -1.1104 3.95778 15.7677 3.56877
122 1 -1.1104 6.77057 15.4655 3.9442
140 1 -1.1104 6.81439 15.5368 1.08481
348 2 2.2208 -0.404147 19.5202 13.4269
139 1 -1.1104 6.88327 18.3846 3.65603
512 2 2.2208 8.19045 16.9496 13.681
9056 2 2.2208 -0.211724 -2.91494 2.58291
137 1 -1.1104 9.391 18.3249 9.35918
138 1 -1.1104 6.82985 18.3631 1.05028
118 1 -1.1104 6.59042 15.6113 6.6694
160 2 2.2208 8.15435 14.1402 5.11416
150 2 2.2208 11.1176 14.2216 2.2493
141 2 2.2208 11.0456 16.8753 5.05568
144 1 -1.1104 12.6656 18.664 0.731397
147 1 -1.1104 12.4366 18.3789 3.61813
148 1 -1.1104 12.3677 15.7686 0.797747
151 2 2.2208 11.0218 19.6578 2.14826
152 1 -1.1104 12.4807 15.6347 3.52834
155 1 -1.1104 9.69873 18.3708 0.788675
157 2 2.2208 8.21668 17.0065 2.13815
159 1 -1.1104 9.63898 18.1951 3.63975
161 2 2.2208 8.22086 19.7386 4.95933
162 1 -1.1104 9.53514 15.6878 0.74925
164 1 -1.1104 9.68773 15.5977 3.65755
145 1 -1.1104 12.5577 18.491 6.47092
149 1 -1.1104 12.3989 15.7951 6.53752
163 1 -1.1104 9.57898 15.522 6.52612
166 1 -1.1104 1.38351 -4.22303 6.69705
174 1 -1.1104 4.16702 -1.35242 6.72351
170 1 -1.1104 1.37323 -1.28228 6.49633
175 2 2.2208 5.58632 -0.0155969 10.7567
176 1 -1.1104 1.2194 -4.16078 12.4188
180 1 -1.1104 1.11987 -4.01794 9.55363
184 1 -1.1104 0.982407 -1.28038 12.0461
186 2 2.2208 5.46467 -2.96881 8.00504
188 1 -1.1104 1.29605 -1.14329 9.3621
190 1 -1.1104 4.04134 -3.99452 12.3248
192 2 2.2208 2.73397 0.203402 8.08165
193 1 -1.1104 4.08475 -4.23852 9.68531
195 2 2.2208 2.50617 -2.66977 10.8375
197 1 -1.1104 3.95746 -1.33552 12.2013
198 1 -1.1104 3.97321 -1.31508 9.29266
178 1 -1.1104 6.81671 -4.21681 12.6995
189 1 -1.1104 6.89054 -1.42212 9.35772
182 1 -1.1104 6.79834 -4.22293 9.53496
483 2 2.2208 2.37033 16.8727 13.746
9068 2 2.2208 -0.218748 19.817 7.97996
185 1 -1.1104 6.81801 -1.23242 12.199
27 1 -1.1104 12.4643 18.2464 12.0817
9060 2 2.2208 -0.330176 2.78034 2.48735
207 1 -1.1104 12.4611 -1.4294 6.66706
208 1 -1.1104 9.61335 -4.32794 6.85705
210 1 -1.1104 9.82327 -1.42631 6.56598
211 2 2.2208 11.0404 0.137881 10.6995
212 1 -1.1104 12.4799 -4.1679 12.3407
214 1 -1.1104 12.4304 -4.1257 9.62485
216 1 -1.1104 12.3946 -1.16856 12.3791
217 2 2.2208 11.0041 -2.76034 8.07666
219 1 -1.1104 12.423 -1.36685 9.63571
220 1 -1.1104 9.57566 -3.88204 12.3506
222 2 2.2208 8.36926 0.105286 7.87767
223 1 -1.1104 9.72425 -4.32454 9.59928
225 2 2.2208 8.37224 -2.72832 10.8469
227 1 -1.1104 9.56606 -1.09208 12.0087
228 1 -1.1104 9.64596 -1.44581 9.42745
303 2 2.2208 -0.257691 14.2692 7.999
8208 2 2.2208 5.45409 -5.48709 10.8058
9054 2 2.2208 -0.314002 16.9128 5.16368
539 2 2.2208 2.55985 -2.75373 -0.295472
173 1 -1.1104 4.0327 1.40816 6.70815
238 1 -1.1104 3.99749 6.81646 6.5823
234 1 -1.1104 1.27125 7.16694 6.35494
177 1 -1.1104 1.36761 1.83095 12.2252
181 1 -1.1104 1.21093 1.5819 9.27474
187 2 2.2208 5.47235 2.8708 8.06141
191 1 -1.1104 4.1948 1.46867 12.1672
194 1 -1.1104 4.11739 1.61722 9.52254
196 2 2.2208 2.73145 3.13098 10.8574
240 2 2.2208 5.50842 5.5842 10.7095
246 1 -1.1104 1.22306 4.46436 12.128
251 1 -1.1104 0.925415 4.36055 9.21541
255 1 -1.1104 3.86593 7.00092 11.9401
256 2 2.2208 2.52054 5.65682 7.97812
258 1 -1.1104 4.09524 7.18379 9.27398
260 1 -1.1104 4.01885 4.41155 12.3167
262 1 -1.1104 3.95142 4.31297 9.44974
244 1 -1.1104 1.2785 6.82733 9.5887
242 1 -1.1104 1.01352 7.39834 12.0913
245 1 -1.1104 7.03345 7.08977 9.34852
243 1 -1.1104 6.70874 7.27037 12.2625
179 1 -1.1104 6.93355 1.38752 12.1644
253 1 -1.1104 6.89827 3.93515 9.44967
50 1 -1.1104 12.3131 18.3533 9.28725
267 1 -1.1104 9.55171 7.0962 6.68706
209 1 -1.1104 9.6431 1.32226 6.61495
265 1 -1.1104 12.4606 6.8834 6.49191
237 1 -1.1104 6.66495 4.26695 6.65471
183 1 -1.1104 7.11473 1.09395 9.48634
248 1 -1.1104 6.87316 4.37242 12.3931
266 1 -1.1104 12.6234 4.14994 6.55782
213 1 -1.1104 12.3837 1.47706 12.3903
215 1 -1.1104 12.5345 1.50737 9.51456
218 2 2.2208 11.1735 3.01321 8.07518
221 1 -1.1104 9.63949 1.45975 12.2852
224 1 -1.1104 9.88568 1.6932 9.29754
226 2 2.2208 8.23532 2.85785 10.998
268 1 -1.1104 9.89699 4.49491 9.22641
271 1 -1.1104 9.67724 4.21869 12.0404
275 2 2.2208 8.25093 5.52698 8.0228
276 2 2.2208 11.2028 5.69003 10.7956
280 1 -1.1104 12.2815 4.13815 12.2388
283 1 -1.1104 12.6184 4.2549 9.27277
279 1 -1.1104 12.5127 7.01073 9.33745
278 1 -1.1104 12.553 7.10643 12.0725
273 1 -1.1104 9.81791 6.95229 9.47862
285 1 -1.1104 9.76697 7.07194 12.1524
203 1 -1.1104 6.63631 15.4458 12.1689
83 1 -1.1104 12.4347 15.6074 9.43237
65 1 -1.1104 6.76193 9.87495 6.59063
78 1 -1.1104 3.62636 9.96092 6.50986
62 1 -1.1104 1.08725 10.1052 6.7525
124 1 -1.1104 4.06559 12.6653 6.24875
241 2 2.2208 5.36942 11.4482 10.5252
247 1 -1.1104 1.4363 10.0872 12.1931
250 2 2.2208 5.42978 8.291 7.91956
252 1 -1.1104 1.20711 9.9801 9.47842
257 2 2.2208 2.56575 11.283 7.8669
259 2 2.2208 2.66835 8.44078 10.8222
261 1 -1.1104 4.07016 9.90785 11.7218
263 1 -1.1104 4.09928 9.93458 8.99881
204 1 -1.1104 3.81935 12.8636 9.28294
287 1 -1.1104 4.06429 12.7781 12.2127
294 1 -1.1104 0.986581 12.9386 9.48928
299 1 -1.1104 1.15 12.9461 12.4374
249 1 -1.1104 6.78587 10.0044 12.2757
254 1 -1.1104 6.84079 9.93995 9.39589
290 1 -1.1104 6.86082 12.7538 9.13541
82 2 2.2208 11.0268 19.8245 7.87093
229 2 2.2208 7.94313 19.6007 10.8428
111 1 -1.1104 6.73157 12.8749 6.43085
135 2 2.2208 8.04043 16.8221 7.89516
29 1 -1.1104 9.56593 15.6835 9.46419
297 1 -1.1104 6.862 12.7685 12.2658
264 1 -1.1104 9.75207 9.94023 9.31612
270 1 -1.1104 9.45794 10.0466 12.2765
272 2 2.2208 8.35866 8.61576 10.8264
274 2 2.2208 8.19372 11.2545 7.9855
277 2 2.2208 10.8196 11.4735 10.6554
281 1 -1.1104 12.3968 9.95743 12.1991
282 2 2.2208 11.1813 8.34351 8.10038
284 1 -1.1104 12.4907 9.81317 9.41716
26 1 -1.1104 12.6769 12.7283 12.1016
49 1 -1.1104 12.2383 12.7771 9.29696
104 1 -1.1104 9.78742 12.5983 12.2599
136 1 -1.1104 9.50701 12.879 9.3117
289 1 -1.1104 6.86427 15.5326 9.38208
28 1 -1.1104 1.29101 18.3193 6.39776
133 1 -1.1104 3.98535 15.5169 6.51065
112 1 -1.1104 6.71393 18.4803 6.47102
117 1 -1.1104 0.872054 15.3969 6.46595
126 1 -1.1104 4.05681 18.2285 6.68882
296 1 -1.1104 6.63057 18.2929 12.2484
295 2 2.2208 5.4397 14.176 7.98159
30 2 2.2208 2.54034 14.2866 10.7065
292 1 -1.1104 1.47869 15.6744 9.25552
291 1 -1.1104 1.25509 18.3001 9.12348
300 2 2.2208 5.21891 16.9113 11.0517
298 1 -1.1104 0.886616 18.5197 11.9213
293 2 2.2208 5.25733 19.677 7.92749
51 2 2.2208 2.42202 19.7558 10.6151
52 1 -1.1104 3.84542 15.5455 12.3285
202 1 -1.1104 0.919435 15.7367 12.1574
230 1 -1.1104 3.96438 18.4433 9.65645
231 1 -1.1104 4.06078 15.9013 9.52926
232 2 2.2208 2.70262 16.9332 7.9112
286 1 -1.1104 3.67153 18.3402 12.3009
81 2 2.2208 11.0769 14.1849 7.96036
233 1 -1.1104 9.54828 15.5058 12.3128
288 1 -1.1104 6.60923 18.356 9.29029
17324 2 2.2208 13.7308 -5.50414 8.25259
352 2 2.2208 2.54629 0.0920797 13.4869
9100 2 2.2208 -0.315235 16.8902 -0.412866
386 2 2.2208 10.8769 2.84645 13.7256
676 2 2.2208 -0.302451 14.1741 13.6274
9409 2 2.2208 -0.288917 -2.64169 13.6193
629 2 2.2208 8.20246 8.385 -0.437967
448 2 2.2208 10.8387 8.45849 13.6345
605 2 2.2208 5.52592 11.1608 -0.429774
9412 2 2.2208 -0.227869 3.01321 13.6281
311 2 2.2208 5.1612 0.152134 16.4131
312 1 -1.1104 1.0976 -4.12377 17.7982
316 1 -1.1104 1.29625 -4.20915 15.1971
324 1 -1.1104 1.14337 -1.02385 17.7764
326 2 2.2208 5.30003 -2.79424 19.295
328 1 -1.1104 1.0672 -1.19928 14.8815
332 1 -1.1104 3.87789 -4.11209 17.8626
334 2 2.2208 2.75871 0.200673 19.2567
335 1 -1.1104 3.94033 -4.15632 15.0688
339 2 2.2208 2.43583 -2.75086 16.3787
341 1 -1.1104 3.96872 -1.3005 17.8114
342 1 -1.1104 3.92432 -1.39088 14.869
320 1 -1.1104 6.79649 -4.04079 15.1044
336 1 -1.1104 4.12311 -4.17882 20.8323
330 1 -1.1104 6.72825 -1.24311 15.0271
650 2 2.2208 -0.169142 16.7113 22.2436
329 1 -1.1104 1.25784 -1.0723 20.7015
331 1 -1.1104 6.54911 -1.21346 20.745
314 1 -1.1104 6.71423 -4.10728 18.0293
325 1 -1.1104 6.81643 -1.22292 18.0135
628 2 2.2208 11.0653 5.57872 27.6812
651 2 2.2208 13.9063 0.205809 13.6957
321 1 -1.1104 6.82388 -4.1416 20.8554
354 2 2.2208 10.8966 -0.0646008 16.493
355 1 -1.1104 12.3012 -3.98516 17.9804
357 1 -1.1104 12.4226 -3.93358 15.1292
361 1 -1.1104 12.2411 -1.26095 17.9391
362 2 2.2208 10.9474 -2.5799 19.5728
364 1 -1.1104 12.3145 -1.00026 14.9684
366 1 -1.1104 9.57782 -4.00969 18.0237
368 2 2.2208 8.07215 0.176687 19.3807
369 1 -1.1104 9.6483 -4.12913 15.2195
373 2 2.2208 8.08023 -2.60734 16.5485
375 1 -1.1104 9.56703 -1.05412 18.021
376 1 -1.1104 9.21976 -1.33784 15.2605
8459 2 2.2208 5.27656 -5.47509 22.1626
649 2 2.2208 13.5856 3.02539 16.5253
358 1 -1.1104 12.4273 -4.00886 20.8128
8569 2 2.2208 2.50209 -5.39702 25.0957
484 2 2.2208 5.17316 19.8638 13.7097
333 1 -1.1104 3.99023 1.53317 17.7952
313 1 -1.1104 1.26847 1.55661 17.8183
318 1 -1.1104 1.12011 1.59517 14.9588
327 2 2.2208 5.46248 3.00762 19.4071
337 1 -1.1104 3.94029 1.54974 14.8967
340 2 2.2208 2.36814 2.94992 16.312
387 2 2.2208 5.46882 5.66599 16.5098
389 1 -1.1104 1.29677 7.40183 17.8913
391 1 -1.1104 0.887451 7.17455 15.0868
395 1 -1.1104 1.2598 4.46101 17.7294
400 1 -1.1104 1.05101 4.32272 14.8942
409 2 2.2208 2.53942 5.92281 19.249
411 1 -1.1104 3.82131 7.34599 15.0422
414 1 -1.1104 4.12533 4.52778 18.1557
416 1 -1.1104 4.09305 4.3542 15.1938
408 1 -1.1104 4.08255 7.07804 17.8078
397 1 -1.1104 6.98976 4.43931 18.016
322 1 -1.1104 6.82199 1.51458 15.2787
390 1 -1.1104 6.72172 7.06383 17.8411
401 1 -1.1104 0.92127 4.53416 20.6214
404 1 -1.1104 6.80998 4.16521 15.2556
8464 2 2.2208 8.31997 -5.37723 13.9587
420 2 2.2208 2.55382 5.88505 13.5574
8527 2 2.2208 11.0526 -5.21977 22.3604
660 2 2.2208 -0.180304 13.9887 24.8734
315 1 -1.1104 6.58541 1.52618 17.9678
356 1 -1.1104 12.3332 1.58215 18.0154
359 1 -1.1104 12.2284 1.73314 15.3038
363 2 2.2208 11.0081 2.83652 19.2963
367 1 -1.1104 9.55573 1.62809 18.0092
371 1 -1.1104 9.60939 1.64757 15.1049
374 2 2.2208 8.18561 2.82177 16.6278
423 2 2.2208 10.9367 5.88198 16.7154
428 1 -1.1104 12.5234 4.43824 17.9342
431 1 -1.1104 12.5546 4.34081 14.8436
435 1 -1.1104 9.51056 7.17779 18.088
436 2 2.2208 8.32174 5.6669 19.5035
441 1 -1.1104 9.63878 4.31981 18.1439
443 1 -1.1104 9.44982 4.42703 15.1091
426 1 -1.1104 12.2615 6.98664 14.9217
425 1 -1.1104 12.2309 7.54465 17.8552
438 1 -1.1104 9.45675 7.18307 15.1958
444 1 -1.1104 9.79886 4.39223 20.8571
393 1 -1.1104 6.92198 7.14774 15.2084
9411 2 2.2208 -0.439116 -2.57013 25.029
513 2 2.2208 8.26903 19.7788 27.8976
394 1 -1.1104 6.79512 7.34208 20.8329
8535 2 2.2208 5.35361 -5.45469 16.4521
8493 2 2.2208 11.0302 -5.42407 16.7115
388 2 2.2208 5.39718 11.3893 16.4419
396 1 -1.1104 0.93454 10.0633 17.874
399 2 2.2208 5.45738 8.57185 19.2607
402 1 -1.1104 1.02686 10.0074 15.0092
410 2 2.2208 2.4832 11.2436 19.2906
413 2 2.2208 2.56678 8.60253 16.4838
415 1 -1.1104 4.03382 10.0204 17.8321
418 1 -1.1104 3.88591 9.84524 14.9425
451 1 -1.1104 1.14217 12.7049 17.8991
455 1 -1.1104 1.15317 12.7261 15.2425
471 1 -1.1104 3.76591 12.7793 17.9256
474 1 -1.1104 4.01186 12.6861 14.9741
453 1 -1.1104 6.71632 12.9503 18.0205
459 1 -1.1104 6.72869 12.6997 15.0511
456 1 -1.1104 1.41961 12.7412 20.7793
422 2 2.2208 2.48222 11.4135 13.6902
406 1 -1.1104 6.71292 9.93126 15.1705
403 1 -1.1104 1.01756 9.97637 20.6184
419 1 -1.1104 3.83454 9.75605 20.6641
8479 2 2.2208 8.11074 -5.51417 19.2411
398 1 -1.1104 6.90759 9.95502 17.9684
683 2 2.2208 -0.247695 11.4525 27.7763
424 2 2.2208 10.9871 11.4092 16.4031
429 1 -1.1104 12.4981 10.3485 17.727
430 2 2.2208 11.0269 8.61533 19.3917
433 1 -1.1104 12.4774 10.0615 14.9424
437 2 2.2208 8.27187 11.2647 19.3718
440 2 2.2208 8.25215 8.54456 16.5421
442 1 -1.1104 9.63486 10.023 17.8761
445 1 -1.1104 9.71731 9.95617 15.1519
487 1 -1.1104 12.2169 12.9598 17.6303
489 1 -1.1104 12.461 12.8185 14.8914
498 1 -1.1104 9.37465 12.5469 17.7645
501 1 -1.1104 9.68642 12.9123 14.9561
378 2 2.2208 11.1099 17.0717 27.6503
434 1 -1.1104 12.4895 9.91432 20.6175
446 1 -1.1104 9.59369 9.90632 20.8182
465 2 2.2208 5.44421 14.3507 19.3727
478 2 2.2208 2.59476 14.1428 16.3489
450 2 2.2208 5.3353 16.8394 16.4398
452 1 -1.1104 1.08063 18.2588 18.0944
457 1 -1.1104 0.898132 18.2797 14.9185
463 1 -1.1104 1.04342 15.4585 18.0672
466 2 2.2208 5.27516 19.7179 19.2016
467 1 -1.1104 1.08405 15.422 15.0871
472 1 -1.1104 3.92626 18.3585 17.6349
473 2 2.2208 2.62666 16.7784 19.3063
476 1 -1.1104 3.96389 18.3667 15.0167
479 2 2.2208 2.42193 19.6938 16.3531
480 1 -1.1104 3.97925 15.5191 17.7671
481 1 -1.1104 4.00652 15.5024 15.0104
461 1 -1.1104 6.78147 18.19 15.0807
477 1 -1.1104 4.0303 18.32 20.6211
17717 2 2.2208 -0.231081 -5.44113 22.1378
673 2 2.2208 -0.19377 19.7721 19.2773
549 1 -1.1104 12.447 16.0026 23.5056
462 1 -1.1104 6.74851 18.3949 20.7041
468 1 -1.1104 1.40871 15.5776 20.8263
349 2 2.2208 -0.341147 0.121698 22.1394
351 2 2.2208 5.43894 -2.62671 13.569
464 1 -1.1104 6.82017 15.7611 17.9952
469 1 -1.1104 6.81513 15.5662 15.0153
505 2 2.2208 8.05874 14.0386 16.4707
454 1 -1.1104 6.80838 18.4198 17.8564
494 2 2.2208 11.0001 14.142 19.3248
486 2 2.2208 11.0864 16.9375 16.5601
488 1 -1.1104 12.4208 18.6659 17.703
491 1 -1.1104 12.5896 18.7795 14.6766
493 1 -1.1104 12.4136 15.7492 17.9094
495 2 2.2208 11.1002 19.8343 19.2533
496 1 -1.1104 12.4382 15.6611 15.2697
499 1 -1.1104 9.39962 18.2706 17.7607
500 2 2.2208 8.13866 16.9863 19.2555
503 1 -1.1104 9.70079 18.2246 14.9977
506 2 2.2208 8.06458 19.829 16.5374
507 1 -1.1104 9.58142 15.5694 17.7238
508 1 -1.1104 9.40696 15.4756 15.2012
604 2 2.2208 2.5422 8.34896 27.958
632 2 2.2208 8.13473 19.7914 22.003
546 1 -1.1104 12.5484 18.6191 23.3631
648 2 2.2208 -0.232983 19.7319 25.0497
343 1 -1.1104 3.78302 -1.40274 20.5634
675 2 2.2208 -0.508841 17.044 16.4275
669 2 2.2208 -0.244726 2.87491 24.9663
317 1 -1.1104 1.31129 -3.9281 20.4404
514 2 2.2208 5.51026 0.208929 22.2893
515 1 -1.1104 0.823895 -3.83679 23.407
519 1 -1.1104 1.11025 -4.06428 26.6066
523 1 -1.1104 1.01812 -1.32901 23.6655
525 2 2.2208 5.24913 -2.68598 24.9732
527 1 -1.1104 0.884686 -1.3259 26.3867
529 1 -1.1104 3.82733 -3.99532 23.5673
531 2 2.2208 2.49952 0.0585982 24.9712
532 1 -1.1104 3.73344 -4.20888 26.5445
534 2 2.2208 2.49448 -2.72693 22.1604
536 1 -1.1104 3.77187 -1.00357 23.4719
537 1 -1.1104 3.99348 -1.26354 26.4687
524 1 -1.1104 6.66216 -1.10397 23.7309
528 1 -1.1104 6.79686 -1.30693 26.3058
517 1 -1.1104 6.57525 -4.0431 23.6282
521 1 -1.1104 6.47767 -4.17882 26.4264
609 1 -1.1104 9.51567 18.3644 26.4074
652 2 2.2208 -0.302214 2.99941 19.2826
370 1 -1.1104 9.60281 -4.2141 20.889
347 1 -1.1104 6.68738 15.5651 23.623
607 1 -1.1104 6.76196 18.381 26.267
365 1 -1.1104 12.3815 -1.02781 20.7054
377 1 -1.1104 9.59908 -1.42303 20.9132
578 1 -1.1104 9.69607 18.3133 23.4623
550 2 2.2208 10.8948 0.113181 22.0548
551 1 -1.1104 12.4327 -3.85053 23.6564
553 1 -1.1104 12.408 -3.83809 26.3964
555 1 -1.1104 12.4698 -1.26908 23.4221
556 2 2.2208 10.9422 -2.53965 24.9843
558 1 -1.1104 12.3212 -1.12258 26.3448
559 1 -1.1104 9.46158 -4.00191 23.6597
561 2 2.2208 8.2898 0.314223 24.924
562 1 -1.1104 9.66313 -3.94606 26.5868
564 2 2.2208 8.07447 -2.67974 22.1462
566 1 -1.1104 9.5416 -1.17925 23.4725
567 1 -1.1104 9.60929 -1.07171 26.3346
8460 2 2.2208 8.029 -5.39159 24.975
338 1 -1.1104 4.09232 1.618 20.5904
392 1 -1.1104 1.03924 7.164 20.8069
417 1 -1.1104 3.83831 4.38309 20.7728
319 1 -1.1104 0.987594 1.53461 20.7318
412 1 -1.1104 3.98649 7.01223 20.6084
516 1 -1.1104 1.12903 1.51598 23.6728
520 1 -1.1104 1.01798 1.6539 26.2078
526 2 2.2208 5.14257 2.95266 24.9299
530 1 -1.1104 3.96265 1.73346 23.4983
533 1 -1.1104 3.67559 1.37753 26.3267
535 2 2.2208 2.47877 2.88041 22.0247
579 2 2.2208 5.27057 5.71626 21.925
585 1 -1.1104 1.05676 4.42028 23.487
590 1 -1.1104 1.3122 4.24604 26.286
595 2 2.2208 2.61733 5.70348 25.0324
599 1 -1.1104 3.9541 4.5308 23.5929
601 1 -1.1104 4.00804 4.40552 26.4139
594 1 -1.1104 4.12586 7.31597 23.2377
581 1 -1.1104 1.32621 7.24573 23.5405
583 1 -1.1104 1.30712 7.00833 26.425
592 1 -1.1104 6.83309 4.52127 26.426
597 1 -1.1104 4.14127 7.1824 26.5045
518 1 -1.1104 6.77869 1.52259 23.5982
680 2 2.2208 -0.0528762 11.3274 22.2106
323 1 -1.1104 6.77611 1.51572 20.8318
432 1 -1.1104 12.5643 4.32956 20.7701
427 1 -1.1104 12.4799 7.06471 20.6165
360 1 -1.1104 12.3058 1.75328 20.8327
543 1 -1.1104 9.70184 15.5791 26.1587
587 1 -1.1104 6.76635 4.20428 23.7221
582 1 -1.1104 6.82168 7.2468 23.6036
606 2 2.2208 8.14426 16.8667 25.0324
405 1 -1.1104 6.90249 4.21414 20.7813
372 1 -1.1104 9.54673 1.64593 20.6649
584 1 -1.1104 6.81082 7.11602 26.4791
522 1 -1.1104 6.72925 1.60425 26.4067
439 1 -1.1104 9.721 6.88767 20.8651
552 1 -1.1104 12.0963 1.42537 23.674
554 1 -1.1104 12.4192 1.53205 26.4996
557 2 2.2208 11.0467 2.92969 24.882
560 1 -1.1104 9.62459 1.67962 23.3993
563 1 -1.1104 9.75291 1.63264 26.4908
565 2 2.2208 8.32535 3.01108 22.1526
611 1 -1.1104 9.70187 4.17665 26.3885
613 1 -1.1104 9.70134 4.47067 23.622
617 2 2.2208 8.11551 5.79172 25.1192
618 2 2.2208 11.1393 5.66908 22.2004
622 1 -1.1104 12.6005 4.36418 23.6062
625 1 -1.1104 12.5722 4.48148 26.3226
620 1 -1.1104 12.407 7.11664 23.5066
615 1 -1.1104 9.41339 7.17471 26.4987
621 1 -1.1104 12.3262 7.23971 26.561
641 1 -1.1104 6.95118 18.6284 23.6081
407 1 -1.1104 6.9037 10.0108 20.8545
475 1 -1.1104 4.03322 12.6732 20.7694
636 1 -1.1104 3.96377 12.6772 23.6217
640 1 -1.1104 1.15499 12.6397 26.4342
580 2 2.2208 5.35102 11.3189 22.1716
586 1 -1.1104 1.09204 9.89921 23.4954
589 2 2.2208 5.44276 8.46128 24.9807
591 1 -1.1104 1.19268 10.0057 26.5584
596 2 2.2208 2.75782 11.2646 25.2137
598 2 2.2208 2.58932 8.46472 22.2206
600 1 -1.1104 4.08726 9.92209 23.6215
602 1 -1.1104 4.16856 9.82284 26.4596
646 1 -1.1104 1.21285 12.6106 23.598
379 1 -1.1104 4.28927 12.8312 26.5591
588 1 -1.1104 6.65564 9.95976 23.7736
633 1 -1.1104 9.65972 15.5879 23.5279
548 1 -1.1104 12.415 18.3261 26.1588
460 1 -1.1104 6.75311 12.696 20.7945
490 1 -1.1104 12.5226 12.6057 20.432
502 1 -1.1104 9.75172 12.7348 20.6763
541 2 2.2208 11.028 17.0175 21.9077
627 1 -1.1104 9.66031 7.17566 23.5884
631 2 2.2208 8.15495 14.0391 22.1788
593 1 -1.1104 6.99431 9.91138 26.3733
644 1 -1.1104 6.64888 12.6434 23.4971
635 1 -1.1104 7.10556 12.8922 26.1177
608 1 -1.1104 9.66136 12.5334 26.2771
577 1 -1.1104 9.64787 13.0022 23.5195
547 1 -1.1104 12.2875 12.7801 26.5828
542 1 -1.1104 12.4652 12.9417 23.3206
610 1 -1.1104 9.64273 9.89072 26.3063
612 1 -1.1104 9.5382 10.1518 23.4331
614 2 2.2208 8.08724 8.61505 22.0768
616 2 2.2208 8.16858 11.2977 24.9834
619 2 2.2208 10.9573 11.367 22.0626
623 1 -1.1104 12.3526 9.90907 23.5274
624 2 2.2208 10.8625 8.41766 24.9298
626 1 -1.1104 12.5151 9.91091 26.2486
504 1 -1.1104 9.61976 18.5523 20.4637
482 1 -1.1104 4.15313 15.5313 20.927
492 1 -1.1104 12.4722 18.2964 20.4829
458 1 -1.1104 1.07453 18.4891 20.7957
573 2 2.2208 2.71038 14.1928 22.2162
643 2 2.2208 5.48956 14.1944 24.9952
383 1 -1.1104 3.9566 18.6236 26.3579
642 2 2.2208 5.42736 19.752 25.0245
382 2 2.2208 2.63792 17.0044 25.0643
639 1 -1.1104 0.957113 15.299 26.6142
647 2 2.2208 5.52732 17.046 22.0861
381 1 -1.1104 3.96842 15.5266 26.3625
634 1 -1.1104 3.91352 18.3769 23.6055
638 1 -1.1104 1.19463 18.3529 26.345
574 2 2.2208 2.5512 19.671 22.0496
645 1 -1.1104 1.20445 18.2125 23.6071
345 1 -1.1104 3.95239 15.536 23.6156
346 1 -1.1104 1.38983 15.5898 23.594
637 1 -1.1104 6.8486 15.5406 26.5375
576 1 -1.1104 12.7104 15.554 26.2005
470 1 -1.1104 6.94577 15.4385 20.765
509 1 -1.1104 9.61095 15.5508 20.5533
497 1 -1.1104 12.4396 15.39 20.5414
575 2 2.2208 11.2328 19.793 24.9611
571 2 2.2208 11.0685 14.3861 24.7711
674 2 2.2208 -0.179015 14.062 19.353
350 2 2.2208 -0.364517 8.45195 13.5349
572 2 2.2208 2.57719 19.9331 27.8604
385 2 2.2208 11.0979 -2.74122 13.6633
654 2 2.2208 -0.377693 11.294 16.4354
679 2 2.2208 -0.21269 5.57267 27.7372
668 2 2.2208 -0.288808 8.6328 19.218
682 2 2.2208 -0.0877552 8.52438 25.204
655 2 2.2208 -0.336485 5.68593 16.3318
686 2 2.2208 -0.394835 5.82269 22.0615
653 2 2.2208 -0.286391 0.227025 16.402
449 2 2.2208 8.19623 11.2733 13.6079
447 2 2.2208 8.23142 5.71435 13.7594
9404 2 2.2208 -0.0938227 -2.51316 19.231
630 2 2.2208 11.0374 11.2888 27.6607
353 2 2.2208 5.4691 2.84114 13.7035
538 2 2.2208 5.37065 0.197477 27.7139
511 2 2.2208 10.8464 14.2492 13.8036
384 2 2.2208 8.20277 0.287839 13.732
544 2 2.2208 2.63448 14.2053 27.7049
603 2 2.2208 5.38218 5.70138 27.715
540 2 2.2208 2.39834 2.83579 27.7893
687 2 2.2208 5.60635 22.6865 5.23754
689 1 -1.1104 0.979283 24.1728 1.14398
690 1 -1.1104 1.14946 24.119 3.725
691 1 -1.1104 1.28488 21.3127 0.957377
693 2 2.2208 5.37288 25.5132 2.2496
694 1 -1.1104 1.13898 21.3597 3.66993
696 1 -1.1104 3.89383 24.0861 0.892367
697 2 2.2208 2.53712 22.8471 2.35531
699 1 -1.1104 4.02425 24.59 3.72006
700 2 2.2208 2.67029 25.5385 5.15201
701 1 -1.1104 3.87634 21.4372 0.752606
703 1 -1.1104 4.08727 21.2883 3.59065
9710 2 2.2208 -0.286539 28.4284 4.91538
756 2 2.2208 -0.37935 39.7317 10.7336
704 1 -1.1104 3.94426 27.1318 3.60502
692 1 -1.1104 1.10295 26.7777 0.814114
10080 2 2.2208 -0.287417 25.3976 13.4925
835 1 -1.1104 3.97903 21.2006 6.54529
828 1 -1.1104 1.28368 24.1163 6.60231
9714 2 2.2208 -0.382242 34.0316 5.34213
712 1 -1.1104 6.79084 21.1202 3.85792
713 1 -1.1104 6.97799 26.7664 3.57204
708 1 -1.1104 6.6711 24.3878 0.573904
709 1 -1.1104 6.67478 23.9144 3.37795
829 1 -1.1104 6.88254 23.8018 6.40785
710 1 -1.1104 6.8528 21.2206 0.918888
714 2 2.2208 11.0439 22.4553 5.16689
716 1 -1.1104 12.3715 24.1629 0.746437
717 1 -1.1104 12.4752 23.9983 3.76625
718 1 -1.1104 12.5958 21.3502 0.693278
720 2 2.2208 11.0419 25.5167 2.43667
723 1 -1.1104 9.62903 24.255 1.18033
724 2 2.2208 8.34387 22.6087 2.3158
726 1 -1.1104 9.44744 24.1825 3.72428
727 2 2.2208 8.21564 25.4717 5.1675
728 1 -1.1104 9.56337 21.2302 1.06039
730 1 -1.1104 9.76723 20.9022 3.59648
721 1 -1.1104 12.493 21.3024 3.67451
729 1 -1.1104 9.84399 27.084 1.08505
1212 1 -1.1104 12.6462 27.1689 0.783734
861 1 -1.1104 12.3017 23.8916 6.40092
719 1 -1.1104 12.537 26.6932 3.59554
865 1 -1.1104 9.62642 21.0916 6.31453
711 1 -1.1104 6.93333 26.8997 0.879494
731 1 -1.1104 9.79854 26.8604 3.82076
722 1 -1.1104 12.2723 26.6444 6.47034
866 1 -1.1104 9.44421 26.793 6.42642
1562 1 -1.1104 12.2721 46.7098 6.92842
695 1 -1.1104 1.35764 27.0024 3.54553
702 1 -1.1104 3.89346 27.0319 0.828976
688 2 2.2208 5.23098 28.3494 4.99182
698 2 2.2208 2.71641 28.4038 2.26546
736 1 -1.1104 1.35163 29.5327 0.926496
739 1 -1.1104 1.25988 29.6313 3.73727
742 1 -1.1104 1.2416 32.3655 0.871613
743 2 2.2208 5.48482 30.9624 2.13852
745 1 -1.1104 1.13925 32.6024 3.74768
747 1 -1.1104 4.20565 29.6332 0.827373
750 1 -1.1104 4.09132 29.8567 3.61991
752 2 2.2208 2.47537 31.0544 5.11702
754 1 -1.1104 3.96122 32.5545 0.733076
755 1 -1.1104 3.84502 32.5336 3.58127
760 1 -1.1104 6.81909 29.4822 3.53824
9729 2 2.2208 13.5754 28.2616 7.63366
9722 2 2.2208 -0.417513 39.6781 5.31186
836 1 -1.1104 4.00706 26.888 6.67299
887 1 -1.1104 3.81808 29.6005 6.37416
1281 2 2.2208 8.24687 36.8133 -0.431587
9873 2 2.2208 -0.423901 31.194 13.4452
761 1 -1.1104 6.80073 32.3924 0.933978
746 1 -1.1104 6.75175 32.389 3.7799
759 1 -1.1104 6.98809 29.6388 0.873571
715 2 2.2208 11.0232 28.3205 5.06169
725 2 2.2208 8.34096 28.1132 2.27713
763 1 -1.1104 12.4052 29.5808 0.775262
765 1 -1.1104 12.6008 29.9587 3.5684
767 1 -1.1104 12.5471 32.3441 0.778988
768 2 2.2208 10.975 31.1457 2.21255
770 1 -1.1104 12.29 32.664 3.58946
771 1 -1.1104 9.83829 29.6874 0.820307
774 1 -1.1104 9.62079 29.8399 3.67722
776 2 2.2208 8.35512 31.1249 5.20897
778 1 -1.1104 9.63424 32.5881 0.849187
779 1 -1.1104 9.62845 32.5169 3.62777
920 1 -1.1104 9.92602 32.2837 6.4142
707 3 0 13.5102 25.9929 10.5441
833 1 -1.1104 6.57878 26.9846 6.24618
9727 2 2.2208 -0.200865 31.2212 2.25857
9600 2 2.2208 -0.129622 28.3161 10.7478
735 2 2.2208 5.27316 33.6683 4.94963
737 1 -1.1104 0.975003 35.3467 1.04002
740 1 -1.1104 0.97691 35.1826 4.15381
744 2 2.2208 5.1155 36.825 2.161
748 1 -1.1104 3.89407 35.1756 0.75233
749 2 2.2208 2.3699 34.0584 2.35179
751 1 -1.1104 3.93086 35.3914 3.82683
753 2 2.2208 2.27873 36.8366 5.24466
781 2 2.2208 5.31334 39.5767 5.16901
787 1 -1.1104 0.942275 38.1289 0.819927
792 1 -1.1104 1.10991 37.904 3.71338