ITEM: TIMESTEP
10000
ITEM: NUMBER OF ATOMS
17760
ITEM: BOX BOUNDS pp pp pp
-4.6364428926234280e-01 2.7803644289262252e+01
-5.6053285433193709e+00 3.3368532854332204e+02
-4.7133698285326048e-01 2.7811336982853462e+01
ITEM: ATOMS id type q x y z
1 2 2.2208 5.11678 0.165018 5.13673
2 1 -1.1104 0.833319 -4.20004 1.17039
6 1 -1.1104 0.612862 -4.0408 4.0965
10 1 -1.1104 0.631183 -1.1862 1.16711
12 2 2.2208 4.96567 -2.79532 2.48992
14 1 -1.1104 0.894403 -1.31752 4.05373
16 1 -1.1104 3.76959 -4.17086 1.11503
18 2 2.2208 2.06968 0.143596 2.67897
19 1 -1.1104 3.43764 -4.20334 3.8828
21 2 2.2208 2.12815 -2.71885 5.35221
23 1 -1.1104 3.32857 -1.57008 1.36978
24 1 -1.1104 3.66408 -1.33128 3.82934
15 1 -1.1104 6.32783 -1.39424 3.87902
4 1 -1.1104 6.5855 -4.04466 0.920524
8 1 -1.1104 6.41245 -4.20848 3.8702
11 1 -1.1104 6.17491 -1.25245 1.10004
538 2 2.2208 4.80808 0.102396 -0.267337
53 1 -1.1104 11.8516 15.5663 12.5183
9067 2 2.2208 13.5253 11.2413 2.64308
31 2 2.2208 10.6341 -0.188095 5.4376
32 1 -1.1104 12.2011 -3.93682 1.09587
34 1 -1.1104 12.1751 -4.10986 3.82054
36 1 -1.1104 12.1546 -1.30937 0.993195
37 2 2.2208 10.7179 -2.74071 2.51255
39 1 -1.1104 12.1532 -1.44595 3.87076
40 1 -1.1104 9.42305 -4.21346 1.27102
42 2 2.2208 7.74742 0.011856 2.44189
43 1 -1.1104 9.22963 -4.2319 4.00582
45 2 2.2208 7.80591 -2.99744 5.51969
47 1 -1.1104 9.38666 -1.35771 0.969025
48 1 -1.1104 9.20442 -1.42138 4.00248
27 1 -1.1104 11.8984 18.375 12.2427
628 2 2.2208 10.5793 5.71701 -0.271124
662 2 2.2208 13.5117 8.34621 -0.211243
677 2 2.2208 13.4632 -2.57203 -0.239637
9057 2 2.2208 13.2153 14.1295 5.26324
307 2 2.2208 13.3391 0.238349 2.41808
163 1 -1.1104 9.17703 15.4233 6.73167
3 1 -1.1104 0.598944 1.50653 1.26779
7 1 -1.1104 0.558696 1.51902 4.16026
13 2 2.2208 4.85916 2.9688 2.42062
17 1 -1.1104 3.4811 1.31232 1.28742
20 1 -1.1104 3.44995 1.66791 3.87036
22 2 2.2208 2.13807 2.71712 5.39228
54 2 2.2208 5.14534 5.60206 5.11045
56 1 -1.1104 0.559635 6.91744 1.22327
58 1 -1.1104 0.848241 7.11094 3.79444
60 1 -1.1104 0.988431 4.18625 1.39272
67 1 -1.1104 0.974268 4.3724 4.08855
71 1 -1.1104 3.54086 7.14796 1.02151
72 2 2.2208 2.22203 5.77366 2.55483
74 1 -1.1104 3.42484 7.25623 3.70612
76 1 -1.1104 3.45228 4.20956 0.958574
79 1 -1.1104 3.82135 4.47406 3.75596
59 1 -1.1104 6.26425 6.99803 3.77668
238 1 -1.1104 3.50475 6.90421 6.61931
9 1 -1.1104 6.60419 1.54844 3.82076
69 1 -1.1104 6.40989 4.17471 3.77894
5 1 -1.1104 6.52001 1.44994 0.902172
63 1 -1.1104 6.21763 4.287 0.990832
57 1 -1.1104 6.35932 7.08005 1.16832
169 1 -1.1104 6.65079 1.2691 6.6962
540 2 2.2208 2.21697 2.56191 -0.24369
237 1 -1.1104 6.31421 4.2138 6.81315
603 2 2.2208 4.86151 5.68178 -0.383124
118 1 -1.1104 6.28661 15.39 6.77866
544 2 2.2208 2.07081 14.1664 -0.447771
33 1 -1.1104 11.987 1.52232 0.915641
35 1 -1.1104 12.039 1.5337 3.9077
38 2 2.2208 10.6455 2.83139 2.40999
41 1 -1.1104 9.11899 1.48759 1.18907
44 1 -1.1104 9.31465 1.29559 4.06009
46 2 2.2208 7.90674 2.72087 5.35268
84 2 2.2208 10.6968 5.42577 5.45264
86 1 -1.1104 12.038 7.04116 1.11741
87 1 -1.1104 11.9894 7.01623 3.93506
88 1 -1.1104 12.0528 4.11599 1.02555
92 1 -1.1104 12.1811 4.18533 4.03656
94 1 -1.1104 9.05288 7.02037 1.01097
95 2 2.2208 7.83917 5.62033 2.44413
97 1 -1.1104 9.1455 6.75981 4.04614
99 1 -1.1104 9.10175 4.19233 1.28474
102 1 -1.1104 9.29077 3.93835 3.97694
266 1 -1.1104 12.0367 4.3092 6.86551
29 1 -1.1104 9.41966 15.523 9.5157
570 2 2.2208 7.72939 2.88867 -0.353198
572 2 2.2208 2.13131 19.8883 -0.287473
55 2 2.2208 4.86561 11.1702 5.26488
61 1 -1.1104 0.691222 9.79215 1.12039
66 2 2.2208 5.00175 8.45515 2.43646
68 1 -1.1104 0.569455 9.96167 3.83623
73 2 2.2208 2.00187 11.1167 2.42015
75 2 2.2208 2.18783 8.35316 5.26084
77 1 -1.1104 3.47299 9.90711 0.954708
80 1 -1.1104 3.68506 10.0757 3.68883
107 1 -1.1104 0.705744 12.7935 0.954359
113 1 -1.1104 0.725958 12.571 3.95898
123 1 -1.1104 3.62751 12.8221 1.09478
128 1 -1.1104 3.90496 12.8208 4.1114
64 1 -1.1104 6.18969 9.80096 1.13491
115 1 -1.1104 6.68743 12.7276 3.93227
110 1 -1.1104 6.58747 12.5979 1.02352
119 2 2.2208 5.1362 14.0927 2.42755
9407 2 2.2208 13.454 13.9397 -0.431744
137 1 -1.1104 8.75352 18.3864 9.26778
70 1 -1.1104 6.46598 10.0284 3.85556
9063 2 2.2208 13.5001 8.44234 5.37928
85 2 2.2208 10.6553 11.3699 5.49535
89 1 -1.1104 12.2113 9.80458 0.994542
91 2 2.2208 10.6592 8.55043 2.51632
93 1 -1.1104 12.0349 9.83115 3.87434
96 2 2.2208 7.84796 11.3677 2.55621
98 2 2.2208 7.79008 8.61667 5.1495
100 1 -1.1104 9.24505 9.72794 1.04492
103 1 -1.1104 9.34255 9.81955 3.88569
142 1 -1.1104 12.1092 12.4603 1.17154
146 1 -1.1104 12.2184 12.7484 3.93209
153 1 -1.1104 9.31146 12.7693 1.14561
158 1 -1.1104 9.45313 12.6662 3.79828
101 1 -1.1104 9.3701 9.97925 6.66512
605 2 2.2208 4.93654 11.3048 -0.232138
143 1 -1.1104 11.8787 12.5811 6.7775
154 1 -1.1104 9.3633 12.7581 6.73262
301 2 2.2208 13.5531 2.76336 5.36198
629 2 2.2208 7.80605 8.55278 -0.325451
8463 2 2.2208 4.9902 -5.42512 -0.236449
9062 2 2.2208 13.6251 -2.7412 5.43881
684 2 2.2208 13.5541 2.99296 -0.381727
130 2 2.2208 2.01958 13.9711 5.43415
106 2 2.2208 5.08122 16.8596 5.4196
109 1 -1.1104 0.647892 18.5241 0.948224
114 1 -1.1104 0.54961 18.5794 3.89175
116 1 -1.1104 0.655764 15.7942 1.29542
120 2 2.2208 4.89403 19.6866 2.50869
121 1 -1.1104 0.515917 15.3605 3.90973
125 1 -1.1104 3.49222 18.2584 1.1011
127 2 2.2208 2.07618 17.0964 2.5577
129 1 -1.1104 3.33387 18.3754 4.01491
131 2 2.2208 1.83069 19.8083 5.18434
132 1 -1.1104 3.38266 15.5873 1.12258
134 1 -1.1104 3.63268 15.6344 3.81592
139 1 -1.1104 6.30325 18.2019 4.0119
122 1 -1.1104 6.63274 15.5106 4.01874
138 1 -1.1104 6.34546 18.3165 1.1744
140 1 -1.1104 6.32664 15.5244 1.00548
28 1 -1.1104 0.740245 18.2898 6.51654
17351 2 2.2208 13.3914 -5.48464 2.46218
9061 2 2.2208 13.4985 19.869 5.30325
233 1 -1.1104 9.07128 15.3223 12.3294
9406 2 2.2208 13.3869 19.8854 -0.415716
150 2 2.2208 10.7548 14.0116 2.45972
160 2 2.2208 7.85202 14.0378 5.20029
141 2 2.2208 10.6936 17.1576 5.09675
144 1 -1.1104 12.0985 18.2978 1.14374
147 1 -1.1104 11.9113 18.4582 3.73573
148 1 -1.1104 12.4308 15.4209 0.90121
151 2 2.2208 10.5669 19.8744 2.57826
152 1 -1.1104 12 15.7002 3.7928
155 1 -1.1104 9.30358 18.4323 0.906096
157 2 2.2208 7.66063 16.9268 2.43619
159 1 -1.1104 9.25997 18.5877 3.94552
161 2 2.2208 7.72549 19.805 5.20834
162 1 -1.1104 9.51677 15.4367 0.921071
164 1 -1.1104 9.25457 15.9072 3.79954
156 1 -1.1104 9.0217 18.117 6.49215
9048 2 2.2208 13.4686 17.0387 2.22501
174 1 -1.1104 3.65268 -1.31167 6.56116
168 1 -1.1104 6.32748 -4.34476 6.69343
170 1 -1.1104 0.9882 -1.44226 6.75709
171 1 -1.1104 6.45604 -1.61352 6.73425
166 1 -1.1104 0.761864 -4.21678 6.89279
172 1 -1.1104 3.30545 -4.08404 6.92976
175 2 2.2208 4.88347 0.197578 11.0597
176 1 -1.1104 0.749947 -3.99682 12.49
180 1 -1.1104 0.773439 -4.06675 9.89559
184 1 -1.1104 0.705515 -1.28108 12.3116
186 2 2.2208 5.03028 -2.77477 8.06153
188 1 -1.1104 0.79442 -1.32389 9.6449
190 1 -1.1104 3.68643 -4.25805 12.2142
192 2 2.2208 2.34527 -0.107772 8.05204
193 1 -1.1104 3.69475 -4.12258 9.53641
195 2 2.2208 2.20541 -2.64391 10.9565
197 1 -1.1104 3.44266 -1.28224 12.3702
198 1 -1.1104 3.6048 -1.25824 9.59137
178 1 -1.1104 6.33874 -4.12862 12.2984
182 1 -1.1104 6.63579 -4.09612 9.55641
185 1 -1.1104 6.28566 -1.28442 12.5299
189 1 -1.1104 6.21032 -1.34155 9.52936
9058 2 2.2208 13.3157 17.0227 7.9373
210 1 -1.1104 9.20884 -1.62546 6.85389
207 1 -1.1104 12.2116 -1.39077 6.83936
9065 2 2.2208 13.5454 -2.76343 10.9892
205 1 -1.1104 12.0947 -4.16022 6.62425
208 1 -1.1104 9.41714 -4.43122 6.55038
211 2 2.2208 10.8626 -0.203194 10.9473
212 1 -1.1104 12.1098 -4.11448 12.4207
214 1 -1.1104 12.1514 -4.36645 9.64903
216 1 -1.1104 12.1656 -1.30724 12.3636
217 2 2.2208 10.7618 -2.83569 7.94297
219 1 -1.1104 12.2171 -1.50769 9.42206
220 1 -1.1104 9.19592 -4.19487 12.3056
222 2 2.2208 7.71361 0.0041539 8.21365
223 1 -1.1104 9.42812 -4.43521 9.27724
225 2 2.2208 7.81102 -2.7888 11.0643
227 1 -1.1104 9.35944 -1.45423 12.4415
228 1 -1.1104 9.27439 -1.48084 9.37548
512 2 2.2208 7.63925 16.8555 13.5424
378 2 2.2208 10.4967 17.0128 -0.243133
173 1 -1.1104 3.76252 1.40221 6.66958
236 1 -1.1104 0.93271 4.36541 6.79738
167 1 -1.1104 0.617058 1.40189 6.73673
239 1 -1.1104 3.8246 4.24157 6.52957
234 1 -1.1104 0.84697 7.06172 6.83415
177 1 -1.1104 0.960478 1.55104 12.2314
181 1 -1.1104 0.976314 1.43636 9.64844
187 2 2.2208 5.18867 2.68439 8.07255
191 1 -1.1104 3.61597 1.44638 12.4652
194 1 -1.1104 3.80226 1.4093 9.5324
196 2 2.2208 2.43035 2.7563 10.9089
240 2 2.2208 5.04341 5.59208 10.8871
242 1 -1.1104 0.772185 7.17781 12.5356
244 1 -1.1104 0.776533 7.0801 9.71039
246 1 -1.1104 0.759286 4.40144 12.5981
251 1 -1.1104 0.678624 4.22489 9.84564
255 1 -1.1104 3.57121 7.13235 12.1219
256 2 2.2208 2.30307 5.55966 8.14422
258 1 -1.1104 3.77524 6.86872 9.45681
260 1 -1.1104 3.57445 4.21033 12.4787
262 1 -1.1104 3.68783 4.07698 9.35662
179 1 -1.1104 6.37349 1.38238 12.4514
183 1 -1.1104 6.36843 1.61315 9.48556
245 1 -1.1104 6.55311 6.93678 9.74439
248 1 -1.1104 6.52138 4.18362 12.3362
253 1 -1.1104 6.51107 4.22269 9.70851
265 1 -1.1104 12.1199 6.98162 6.88313
269 1 -1.1104 9.16118 4.10363 6.62239
235 1 -1.1104 6.3437 7.13371 6.63641
243 1 -1.1104 6.29055 7.14007 12.5449
209 1 -1.1104 9.29785 1.24348 6.68077
8902 2 2.2208 13.5309 2.96872 11.0886
679 2 2.2208 -0.449875 5.70657 -0.2843
267 1 -1.1104 9.35246 7.12526 6.69073
206 1 -1.1104 12.2099 1.35835 6.9674
213 1 -1.1104 12.1443 1.41223 12.4616
215 1 -1.1104 12.278 1.28785 9.73033
218 2 2.2208 10.7259 2.67824 8.22335
221 1 -1.1104 9.29699 1.26654 12.2532
224 1 -1.1104 9.30104 1.25399 9.54689
226 2 2.2208 7.83376 2.64338 11.0027
268 1 -1.1104 9.27641 4.25704 9.44182
271 1 -1.1104 9.1911 3.98626 12.6061
273 1 -1.1104 9.37018 7.04533 9.66497
275 2 2.2208 7.78262 5.50849 8.28796
276 2 2.2208 10.5311 5.51616 10.8935
278 1 -1.1104 11.9223 7.11154 12.3638
279 1 -1.1104 12.1035 7.03979 9.71817
280 1 -1.1104 12.0579 4.22338 12.3908
283 1 -1.1104 12.0218 4.10978 9.58925
285 1 -1.1104 9.04008 7.0053 12.3084
309 2 2.2208 13.5641 8.50558 10.6912
108 1 -1.1104 0.757158 12.588 6.66268
62 1 -1.1104 0.888296 9.7419 6.74281
78 1 -1.1104 3.54447 9.70857 6.65459
124 1 -1.1104 3.51778 12.5426 6.66987
111 1 -1.1104 6.37537 12.6408 6.55718
65 1 -1.1104 6.5913 9.90636 6.72963
241 2 2.2208 5.08541 11.208 11.0496
247 1 -1.1104 0.672276 10.0214 12.3894
250 2 2.2208 4.9239 8.36313 8.13056
252 1 -1.1104 0.661359 9.89627 9.62593
257 2 2.2208 2.10584 11.1774 7.89386
259 2 2.2208 2.13308 8.52702 10.8763
261 1 -1.1104 3.58668 9.85938 12.219
263 1 -1.1104 3.57459 9.70632 9.30538
204 1 -1.1104 3.59434 12.8298 9.75625
287 1 -1.1104 3.788 12.5837 12.4981
294 1 -1.1104 0.703015 12.7119 9.49129
299 1 -1.1104 0.803729 12.6209 12.1814
297 1 -1.1104 6.61313 12.6328 12.1013
254 1 -1.1104 6.45689 9.59938 9.48406
249 1 -1.1104 6.36427 9.84218 12.3686
290 1 -1.1104 6.41442 12.4428 9.62591
30 2 2.2208 1.94811 14.029 10.8808
199 2 2.2208 7.6971 14.0357 10.7699
83 1 -1.1104 12.0834 15.6558 9.7163
539 2 2.2208 2.26466 -2.88102 -0.368543
90 1 -1.1104 12.2073 9.79334 6.71123
264 1 -1.1104 9.24861 9.82426 9.45794
270 1 -1.1104 9.26799 10.0023 12.3858
272 2 2.2208 7.94826 8.46101 10.9507
274 2 2.2208 7.86185 11.2225 8.15816
277 2 2.2208 10.892 11.2344 10.8879
281 1 -1.1104 11.9378 9.82117 12.2796
282 2 2.2208 10.7495 8.46504 8.17969
284 1 -1.1104 12.0627 10.0498 9.47319
26 1 -1.1104 12.1005 12.691 12.1543
49 1 -1.1104 12.0181 12.7959 9.42107
104 1 -1.1104 9.40354 12.7936 12.2513
136 1 -1.1104 9.12778 12.6485 9.51719
302 2 2.2208 13.7279 11.2576 8.05219
568 2 2.2208 10.8628 0.0801332 -0.406925
296 1 -1.1104 6.35935 18.2958 12.188
112 1 -1.1104 6.30545 18.5163 6.62552
126 1 -1.1104 3.69756 18.3487 6.80758
117 1 -1.1104 0.788894 15.5266 6.74647
288 1 -1.1104 6.16604 18.1905 9.41042
133 1 -1.1104 3.50648 15.7291 6.6947
295 2 2.2208 4.97441 13.8735 7.99617
51 2 2.2208 2.0266 19.7575 11.0736
52 1 -1.1104 3.47876 15.6577 12.343
202 1 -1.1104 0.763984 15.3517 12.3099
230 1 -1.1104 3.27716 18.4297 9.68176
231 1 -1.1104 3.76351 15.2107 9.37053
232 2 2.2208 2.15239 17.094 8.12785
286 1 -1.1104 3.51312 18.1127 12.3854
291 1 -1.1104 0.543643 18.6431 9.61083
292 1 -1.1104 0.698819 15.7581 9.57711
293 2 2.2208 4.86317 19.7408 8.1917
298 1 -1.1104 0.732518 18.35 12.3147
300 2 2.2208 4.8712 16.7556 10.8513
203 1 -1.1104 6.19337 15.265 12.2068
289 1 -1.1104 6.58695 15.5217 9.4787
9029 2 2.2208 13.4009 19.655 10.7042
229 2 2.2208 7.79974 19.6708 10.7612
308 2 2.2208 13.3407 14.2536 10.9552
82 2 2.2208 10.4436 19.7505 8.03457
81 2 2.2208 10.4586 14.1576 8.16709
105 1 -1.1104 9.2112 18.3283 12.1739
135 2 2.2208 7.67682 16.9024 8.02182
50 1 -1.1104 11.6656 18.2798 9.36217
145 1 -1.1104 12.0558 18.5297 6.5372
149 1 -1.1104 11.956 15.5761 6.6293
25 2 2.2208 10.4912 16.8319 10.9893
8208 2 2.2208 5.18609 -5.48054 11.16
8704 2 2.2208 10.768 -5.45371 -0.139522
8334 2 2.2208 8.0001 -5.52298 2.55927
165 2 2.2208 13.3518 5.65287 8.26095
344 2 2.2208 7.76708 14.0816 -0.491473
9064 2 2.2208 -0.467886 5.61679 5.31168
513 2 2.2208 7.59654 19.618 -0.372948
305 2 2.2208 13.333 5.65306 2.59981
448 2 2.2208 10.54 8.26982 13.7019
545 2 2.2208 4.87541 16.9541 -0.177651
422 2 2.2208 2.09746 11.2175 13.6356
604 2 2.2208 2.05565 8.45443 -0.154005
311 2 2.2208 4.85112 0.11246 16.4911
312 1 -1.1104 0.844915 -4.22055 18.0903
316 1 -1.1104 0.638132 -4.13038 15.3755
324 1 -1.1104 0.844723 -1.28544 18.1711
326 2 2.2208 5.04218 -2.7445 19.4535
328 1 -1.1104 0.56794 -1.4721 15.365
332 1 -1.1104 3.44666 -4.1971 17.7735
334 2 2.2208 2.22289 0.0158806 19.5919
335 1 -1.1104 3.48765 -4.20206 15.1284
339 2 2.2208 1.96765 -2.73844 16.5634
341 1 -1.1104 3.93384 -1.10828 18.2181
342 1 -1.1104 3.37758 -1.07175 15.217
330 1 -1.1104 6.28928 -1.41414 15.2144
320 1 -1.1104 6.18482 -4.19823 14.9385
325 1 -1.1104 6.37782 -1.42882 18.0423
314 1 -1.1104 6.25145 -4.14402 18.0675
352 2 2.2208 2.13349 0.259709 13.7853
9411 2 2.2208 -0.499048 -2.82193 25.2319
354 2 2.2208 10.5227 -0.0960172 16.6211
355 1 -1.1104 12.0822 -4.07109 18.1406
357 1 -1.1104 12.1034 -4.02736 15.2872
361 1 -1.1104 11.9892 -1.25056 18.0956
362 2 2.2208 10.7313 -2.82084 19.5774
364 1 -1.1104 11.9313 -1.31646 15.205
366 1 -1.1104 9.19987 -4.17115 17.9794
368 2 2.2208 7.88075 -0.0347429 19.4394
369 1 -1.1104 9.13575 -4.27717 15.0331
373 2 2.2208 7.73636 -2.74174 16.8047
375 1 -1.1104 9.27905 -1.4254 18.1927
376 1 -1.1104 9.24282 -1.62457 15.439
384 2 2.2208 7.89476 -0.0989116 13.7453
678 2 2.2208 13.5766 11.1202 25.0529
9093 2 2.2208 13.427 -2.55232 16.7622
385 2 2.2208 10.7005 -2.89618 13.779
313 1 -1.1104 0.683769 1.45641 18.1708
318 1 -1.1104 0.665585 1.42413 15.2397
327 2 2.2208 4.97977 2.9773 19.5189
333 1 -1.1104 3.34479 1.57384 17.9988
337 1 -1.1104 3.58956 1.70062 15.2266
340 2 2.2208 2.09929 2.8837 16.5923
387 2 2.2208 5.03557 5.84802 16.6977
389 1 -1.1104 0.695524 7.08014 17.9128
391 1 -1.1104 0.766562 7.16316 15.2182
395 1 -1.1104 0.687441 4.20427 17.968
400 1 -1.1104 0.842652 4.20436 15.2891
408 1 -1.1104 3.53868 7.22547 18.0398
409 2 2.2208 2.18155 5.52238 19.2892
411 1 -1.1104 3.5965 7.17484 15.3411
414 1 -1.1104 3.60066 4.36083 17.9495
416 1 -1.1104 3.65071 4.47304 15.0512
390 1 -1.1104 6.53369 7.13599 18.0691
404 1 -1.1104 6.45339 4.2036 15.2692
315 1 -1.1104 6.3267 1.48216 18.0661
322 1 -1.1104 6.27765 1.3425 15.1314
397 1 -1.1104 6.31187 4.34887 18.0445
420 2 2.2208 2.28009 5.66484 13.8471
353 2 2.2208 5.22876 2.79483 13.8378
393 1 -1.1104 6.57747 7.03492 15.4242
649 2 2.2208 13.3867 2.85037 16.5849
485 2 2.2208 4.92551 14.2239 13.8629
356 1 -1.1104 12.1831 1.39675 17.9209
359 1 -1.1104 12.2533 1.20394 15.2744
363 2 2.2208 10.6856 2.67178 19.5745
367 1 -1.1104 9.27438 1.26571 17.9473
371 1 -1.1104 9.10271 1.22016 15.1332
374 2 2.2208 7.6204 2.90232 16.6451
423 2 2.2208 10.5718 5.68785 16.8706
425 1 -1.1104 12.3348 6.99632 18.0459
426 1 -1.1104 12.0585 7.04365 15.2336
428 1 -1.1104 11.9674 4.23892 18.0828
431 1 -1.1104 11.8798 4.22741 15.1521
435 1 -1.1104 9.28438 7.25893 18.3776
436 2 2.2208 7.86119 5.70569 19.4107
438 1 -1.1104 9.24129 7.07909 15.3421
441 1 -1.1104 9.24023 4.23157 18.021
443 1 -1.1104 8.97717 4.23637 15.3682
432 1 -1.1104 12.2532 4.26304 20.8415
427 1 -1.1104 11.9515 7.05839 20.8263
665 2 2.2208 13.5579 5.75243 19.4146
666 2 2.2208 13.5963 11.2762 19.4362
483 2 2.2208 2.10365 16.7618 13.7162
388 2 2.2208 4.85774 11.3293 16.5407
396 1 -1.1104 0.584738 10.0484 18.2044
399 2 2.2208 5.00054 8.45843 19.5022
402 1 -1.1104 0.607361 9.92568 15.2659
410 2 2.2208 2.23293 11.411 19.3676
413 2 2.2208 2.02634 8.44991 16.6884
415 1 -1.1104 3.45173 9.87527 17.9983
418 1 -1.1104 3.46312 9.97433 15.058
451 1 -1.1104 0.8012 12.6254 18.0319
455 1 -1.1104 0.404026 12.7152 15.1232
471 1 -1.1104 3.51782 12.7708 18.0216
474 1 -1.1104 3.51006 12.9159 15.1914
403 1 -1.1104 0.690414 10.0273 20.969
398 1 -1.1104 6.45778 9.73816 18.1704
406 1 -1.1104 6.22579 9.69762 15.524
459 1 -1.1104 6.47603 12.6996 14.9772
8741 2 2.2208 13.3166 -5.51655 19.3457
510 2 2.2208 10.5165 19.6688 13.7116
453 1 -1.1104 6.39679 12.6536 17.9883
424 2 2.2208 10.8027 11.2556 16.414
429 1 -1.1104 12.1045 9.84336 17.8266
430 2 2.2208 10.7861 8.62765 19.5003
433 1 -1.1104 11.9887 9.82879 15.0264
437 2 2.2208 7.85762 11.3169 19.4571
440 2 2.2208 7.81598 8.52322 16.7202
442 1 -1.1104 9.37948 9.86458 17.8719
445 1 -1.1104 9.179 9.80672 14.9074
487 1 -1.1104 12.1202 12.7038 17.9292
489 1 -1.1104 12.0914 12.8364 15.2809
498 1 -1.1104 9.21211 12.5775 18.0675
501 1 -1.1104 9.2738 12.5077 15.2996
447 2 2.2208 7.80985 5.68054 13.8705
664 2 2.2208 13.3732 8.32678 16.3335
681 2 2.2208 13.6675 2.87521 22.2027
671 2 2.2208 13.3113 17.0168 19.3136
490 1 -1.1104 12.0604 12.7679 20.6685
449 2 2.2208 7.81081 11.1539 13.7412
651 2 2.2208 13.441 -0.0184166 13.7537
478 2 2.2208 2.21636 14.2531 16.6424
450 2 2.2208 5.07378 17.0282 16.7314
452 1 -1.1104 0.707429 18.4987 17.9364
457 1 -1.1104 0.67352 18.5536 15.2667
463 1 -1.1104 0.483546 15.4431 17.8329
465 2 2.2208 5.19527 14.2676 19.3563
466 2 2.2208 4.74895 19.7053 19.4527
467 1 -1.1104 0.666317 15.4914 15.1279
472 1 -1.1104 3.40081 18.4057 17.8465
473 2 2.2208 2.10261 17.019 19.3489
476 1 -1.1104 3.51386 18.2687 14.9957
479 2 2.2208 2.15939 19.8056 16.4742
480 1 -1.1104 3.60901 15.6337 18.1385
481 1 -1.1104 3.62765 15.5628 15.2713
482 1 -1.1104 3.29736 15.5635 20.8492
469 1 -1.1104 6.26901 15.6167 15.1764
454 1 -1.1104 6.30733 18.1551 18.1078
461 1 -1.1104 6.38025 18.3509 15.0501
464 1 -1.1104 6.59911 15.547 18.0121
8460 2 2.2208 7.78041 -5.47269 25.1914
8493 2 2.2208 10.7963 -5.58995 16.475
9408 2 2.2208 13.3384 16.8867 25.1693
672 2 2.2208 13.6686 19.6553 16.6325
486 2 2.2208 10.5369 16.7629 16.4743
488 1 -1.1104 12.0379 18.292 17.9375
491 1 -1.1104 12.286 18.6981 15.0959
493 1 -1.1104 11.8796 15.5704 18.0004
494 2 2.2208 10.6532 14.1368 19.4178
495 2 2.2208 10.6953 19.7014 19.3068
496 1 -1.1104 11.9613 15.5836 15.3496
499 1 -1.1104 9.25598 18.1821 17.9258
500 2 2.2208 7.90201 16.8248 19.4892
503 1 -1.1104 9.21358 17.9268 14.9382
505 2 2.2208 7.77394 14.0784 16.5995
506 2 2.2208 7.86603 19.4175 16.6
507 1 -1.1104 9.2559 15.411 17.9808
508 1 -1.1104 9.00469 15.2186 15.2027
497 1 -1.1104 12.1177 15.6642 20.7944
8534 2 2.2208 2.24447 -5.68112 19.3531
17733 2 2.2208 13.5675 -5.50512 13.835
663 2 2.2208 13.3774 5.9192 13.7294
670 2 2.2208 13.4223 14.1883 16.7392
336 1 -1.1104 3.65935 -4.28837 20.975
380 2 2.2208 13.422 0.0741728 19.4382
343 1 -1.1104 3.76556 -1.4542 20.9542
331 1 -1.1104 6.40275 -1.37231 20.8161
329 1 -1.1104 0.862343 -1.54772 21.0386
321 1 -1.1104 6.53858 -4.09175 20.9095
317 1 -1.1104 0.890041 -4.11639 20.8822
514 2 2.2208 5.06855 -0.0918828 22.3352
515 1 -1.1104 0.959324 -4.23467 23.8088
519 1 -1.1104 0.84035 -4.33733 26.629
523 1 -1.1104 0.617749 -1.16068 23.8461
525 2 2.2208 5.14208 -2.78983 25.2012
527 1 -1.1104 1.05906 -1.5032 26.7432
529 1 -1.1104 3.77426 -3.94352 23.5262
531 2 2.2208 2.136 0.126191 25.0525
532 1 -1.1104 3.71958 -4.04096 26.6643
534 2 2.2208 2.19471 -2.95144 22.261
536 1 -1.1104 3.58777 -1.26728 23.736
537 1 -1.1104 3.75486 -1.39292 26.5922
524 1 -1.1104 6.513 -1.41725 23.6235
521 1 -1.1104 6.34155 -4.09883 26.6642
528 1 -1.1104 6.37789 -1.07453 26.5029
517 1 -1.1104 6.43884 -4.31751 23.7609
377 1 -1.1104 9.16111 -1.45231 20.7804
370 1 -1.1104 9.53926 -4.20324 20.9574
358 1 -1.1104 12.3224 -4.26502 21.0809
656 2 2.2208 13.6774 -2.82083 22.3306
365 1 -1.1104 12.021 -1.37714 21.0587
550 2 2.2208 10.7978 -0.0802418 22.2919
551 1 -1.1104 11.9558 -4.34577 23.7905
553 1 -1.1104 12.1453 -4.18421 26.6876
555 1 -1.1104 12.201 -1.41133 23.7241
556 2 2.2208 10.6762 -2.58866 25.1956
558 1 -1.1104 12.2148 -1.07029 26.6906
559 1 -1.1104 9.28426 -4.27789 23.9464
561 2 2.2208 7.79091 0.162665 25.0639
562 1 -1.1104 9.18519 -3.84523 26.5846
564 2 2.2208 7.78807 -2.69207 22.0507
566 1 -1.1104 9.41619 -1.36721 23.6373
567 1 -1.1104 9.38716 -1.07697 26.6073
659 2 2.2208 13.5596 0.0541923 25.058
417 1 -1.1104 3.62164 4.38693 20.8096
412 1 -1.1104 3.4417 6.95153 20.7749
394 1 -1.1104 6.33522 7.13207 21.1641
323 1 -1.1104 6.49255 1.5043 20.9678
338 1 -1.1104 3.59668 1.33212 20.8581
392 1 -1.1104 0.644757 6.43896 20.6822
319 1 -1.1104 0.513779 1.19333 21.0443
401 1 -1.1104 0.680893 3.81188 20.911
516 1 -1.1104 1.01174 1.361 23.7753
520 1 -1.1104 0.591744 1.41091 26.5361
526 2 2.2208 4.96877 2.77803 25.0682
530 1 -1.1104 3.68249 1.57104 23.7476
533 1 -1.1104 3.33115 1.25457 26.5731
535 2 2.2208 2.1593 2.73429 22.2819
579 2 2.2208 5.03113 5.79602 22.3684
581 1 -1.1104 0.588572 7.12006 23.6757
583 1 -1.1104 0.793712 7.0644 26.5838
585 1 -1.1104 0.560438 4.17413 23.7715
590 1 -1.1104 0.790834 4.22688 26.7102
595 2 2.2208 2.02684 5.56971 25.0915
597 1 -1.1104 3.48776 6.81609 26.5019
599 1 -1.1104 3.53362 4.36239 23.5193
601 1 -1.1104 3.60744 4.11294 26.4289
594 1 -1.1104 3.37564 7.28347 23.9629
518 1 -1.1104 6.69348 1.31404 23.5571
587 1 -1.1104 6.47201 4.25044 23.6291
582 1 -1.1104 6.21605 7.11339 23.8745
584 1 -1.1104 6.61461 7.02598 26.7881
522 1 -1.1104 6.18338 1.57171 26.4724
592 1 -1.1104 6.32175 4.42686 26.2789
405 1 -1.1104 6.43555 4.16983 21.0034
444 1 -1.1104 9.34232 4.35521 20.9875
372 1 -1.1104 9.47612 1.30004 20.7136
439 1 -1.1104 9.29972 6.92024 21.105
351 2 2.2208 4.78209 -2.73185 13.8174
661 2 2.2208 13.5072 5.61122 25.1624
360 1 -1.1104 12.137 1.36675 20.9206
552 1 -1.1104 11.8976 1.22681 23.85
554 1 -1.1104 12.1045 1.73558 26.533
557 2 2.2208 10.6667 2.88113 25.056
560 1 -1.1104 9.23693 1.45895 23.5893
563 1 -1.1104 9.14897 1.57323 26.3185
565 2 2.2208 7.95455 3.00351 22.3024
611 1 -1.1104 9.33678 4.35156 26.6735
613 1 -1.1104 9.32717 4.25923 23.7312
617 2 2.2208 7.97858 5.71417 25.3657
618 2 2.2208 10.7942 5.58946 22.3407
620 1 -1.1104 11.6953 7.22529 23.5937
621 1 -1.1104 12.1312 7.25272 26.691
622 1 -1.1104 12.1369 4.19859 23.6402
625 1 -1.1104 12.086 4.55922 26.5606
627 1 -1.1104 8.9989 7.16403 23.8165
615 1 -1.1104 9.31201 7.01672 26.6299
541 2 2.2208 10.5887 16.958 22.1503
475 1 -1.1104 3.39367 12.7663 20.8978
456 1 -1.1104 0.832497 12.9785 20.5501
460 1 -1.1104 6.19748 12.8861 20.9468
419 1 -1.1104 3.54082 10.0204 20.8162
636 1 -1.1104 3.6055 12.793 23.7662
640 1 -1.1104 0.94092 12.6791 26.1632
580 2 2.2208 4.94682 11.3921 22.2836
586 1 -1.1104 0.764945 10.0077 23.5276
589 2 2.2208 4.9774 8.45994 25.0586
591 1 -1.1104 0.684797 9.67577 26.5041
596 2 2.2208 2.12261 11.2879 24.9688
598 2 2.2208 2.07563 8.52116 22.2673
600 1 -1.1104 3.55971 9.94545 23.5581
602 1 -1.1104 3.53425 9.80881 26.4291
646 1 -1.1104 0.752415 12.7733 23.3219
379 1 -1.1104 3.58737 12.8056 26.7005
644 1 -1.1104 6.44122 12.6835 23.6009
635 1 -1.1104 6.45529 12.6649 26.4067
588 1 -1.1104 6.58499 9.95179 23.9124
593 1 -1.1104 6.37923 10.0088 26.7107
407 1 -1.1104 6.47479 9.94864 21.0703
446 1 -1.1104 9.27779 9.8798 20.786
502 1 -1.1104 9.05059 12.6711 20.8572
685 2 2.2208 13.4148 8.57231 22.3798
658 2 2.2208 13.3164 14.1146 22.1772
434 1 -1.1104 12.2486 9.88261 20.6204
608 1 -1.1104 9.2137 12.7107 26.383
577 1 -1.1104 8.98636 12.9486 23.841
547 1 -1.1104 12.3512 12.6754 26.4401
542 1 -1.1104 11.7545 12.8585 23.4461
610 1 -1.1104 9.32284 9.92371 26.2804
612 1 -1.1104 9.37014 10.0676 23.6061
614 2 2.2208 7.93294 8.58296 22.3476
616 2 2.2208 7.87026 11.3116 24.9258
619 2 2.2208 10.5266 11.4147 22.1013
623 1 -1.1104 12.034 10.0773 23.3579
624 2 2.2208 10.5993 8.50418 25.1737
626 1 -1.1104 12.1531 10.0099 26.5178
477 1 -1.1104 3.43517 18.3769 20.7168
470 1 -1.1104 6.59349 15.633 20.8714
641 1 -1.1104 6.45305 18.4782 23.8991
458 1 -1.1104 0.567341 18.4094 20.812
462 1 -1.1104 6.19948 18.4827 21.0113
607 1 -1.1104 6.251 18.452 26.7408
468 1 -1.1104 0.702135 15.7984 20.9316
347 1 -1.1104 6.22107 15.6047 23.6025
643 2 2.2208 5.14181 14.2557 25.0464
573 2 2.2208 2.13178 14.1753 22.2303
383 1 -1.1104 3.33456 18.4422 26.4913
642 2 2.2208 4.96134 19.7895 25.1304
382 2 2.2208 2.14536 17.1371 24.95
639 1 -1.1104 0.657864 15.5027 26.6308
647 2 2.2208 4.90393 16.973 22.2692
381 1 -1.1104 3.55209 15.734 26.4709
634 1 -1.1104 3.54467 18.4459 23.5801
638 1 -1.1104 0.593392 18.2609 26.2018
574 2 2.2208 1.99396 19.743 22.3586
645 1 -1.1104 0.538639 18.5692 23.4366
345 1 -1.1104 3.57428 15.4514 23.5713
346 1 -1.1104 0.831803 15.6629 23.7618
637 1 -1.1104 6.46968 15.6981 26.4169
578 1 -1.1104 9.23304 18.5164 23.4534
484 2 2.2208 4.90549 19.6236 13.7239
386 2 2.2208 10.7985 2.86641 13.8239
543 1 -1.1104 9.1366 15.5599 26.3709
631 2 2.2208 7.68559 14.1999 22.3103
504 1 -1.1104 9.32852 18.1851 20.4313
546 1 -1.1104 11.8195 18.4944 23.6323
548 1 -1.1104 11.9005 18.3826 26.6221
576 1 -1.1104 12.1152 15.2857 26.4514
8422 2 2.2208 13.4554 -5.49708 25.0325
609 1 -1.1104 9.01991 18.3726 26.5852
633 1 -1.1104 9.01382 15.6873 23.5597
509 1 -1.1104 9.37362 15.5247 20.867
492 1 -1.1104 11.9458 18.5597 20.8837
632 2 2.2208 7.83111 19.7959 22.1885
606 2 2.2208 7.73189 16.9587 25.1253
571 2 2.2208 10.5113 14.0581 25.112
575 2 2.2208 10.4646 19.8436 24.9651
549 1 -1.1104 12.0644 15.7404 23.6515
9405 2 2.2208 13.3193 19.8312 22.3687
8479 2 2.2208 7.7608 -5.55671 19.3727
667 2 2.2208 13.2321 11.1658 13.8356
630 2 2.2208 10.6497 11.1539 27.8391
511 2 2.2208 10.5065 14.0653 13.7407
657 2 2.2208 13.4535 16.7616 13.8048
8535 2 2.2208 4.98949 -5.52014 16.587
8531 2 2.2208 2.13796 -5.54796 13.7832
569 2 2.2208 7.77354 -2.67694 27.6928
421 2 2.2208 5.03919 8.55623 13.8104
687 2 2.2208 4.90612 22.6557 5.26052
689 1 -1.1104 0.511532 23.8654 0.993205
690 1 -1.1104 0.571012 24.019 3.78123
691 1 -1.1104 0.862664 21.0754 1.0277
693 2 2.2208 4.92722 25.5973 2.43007
694 1 -1.1104 0.493842 21.1375 3.77794
695 1 -1.1104 0.726556 27.1272 4.00258
696 1 -1.1104 3.32751 24.0072 0.957683
697 2 2.2208 2.08381 22.6116 2.49323
699 1 -1.1104 3.28568 24.0918 4.02492
700 2 2.2208 1.9045 25.6286 5.24514
701 1 -1.1104 3.62723 21.0643 1.21312
703 1 -1.1104 3.2405 21.2223 3.92915
704 1 -1.1104 3.51721 26.7925 4.1018
692 1 -1.1104 0.601718 26.5483 1.18694
702 1 -1.1104 3.42943 26.9455 1.10544
712 1 -1.1104 6.09618 21.0759 3.79099
709 1 -1.1104 6.21907 24.0743 3.75677
708 1 -1.1104 5.91623 24.1433 0.996921
711 1 -1.1104 6.36683 26.788 1.08542
710 1 -1.1104 6.3723 21.1666 1.17622
831 1 -1.1104 0.73777 26.9551 6.74654
713 1 -1.1104 6.25683 26.7838 3.76349
1253 2 2.2208 1.95886 31.1996 -0.30653
834 1 -1.1104 3.46767 23.8756 6.68491
830 1 -1.1104 0.699507 21.3624 6.91316
829 1 -1.1104 6.32525 24.0997 6.61235
9718 2 2.2208 13.2419 22.8529 2.52408
714 2 2.2208 10.4715 22.7584 5.19129
716 1 -1.1104 11.7248 24.1087 1.16402
717 1 -1.1104 11.7545 24.1726 3.95711
718 1 -1.1104 12.3157 21.126 1.10433
720 2 2.2208 10.5491 25.5838 2.49323
721 1 -1.1104 11.6561 21.2839 4.09286
723 1 -1.1104 8.88563 24.0228 0.801251
724 2 2.2208 7.74677 22.7064 2.30608
726 1 -1.1104 8.99923 24.3137 3.59156
727 2 2.2208 7.66954 25.3716 5.1571
728 1 -1.1104 9.34017 21.2121 1.04579
730 1 -1.1104 9.0484 21.3384 3.90622
864 1 -1.1104 9.08222 23.8671 6.64501
866 1 -1.1104 8.9975 26.8336 6.82145
731 1 -1.1104 8.78454 27.0036 3.98907
861 1 -1.1104 11.902 23.8851 6.69679
729 1 -1.1104 9.12463 26.9661 1.19201
719 1 -1.1104 11.9404 26.8961 4.00509
1212 1 -1.1104 11.9906 27.0497 0.994539
9720 2 2.2208 13.2168 25.4377 5.45189
862 1 -1.1104 11.9541 21.281 6.71808
9711 2 2.2208 13.3027 42.3452 5.169
1580 1 -1.1104 9.31491 46.6276 9.52821
9733 2 2.2208 13.3492 36.862 5.12699
688 2 2.2208 4.9204 28.1225 5.30623
698 2 2.2208 2.04187 28.3099 2.49424
736 1 -1.1104 0.688075 29.6886 0.923897
739 1 -1.1104 0.687064 29.6765 3.69825
742 1 -1.1104 0.536603 32.5445 0.901221
743 2 2.2208 4.77462 31.3218 2.5614
745 1 -1.1104 0.721735 32.4914 3.85427
747 1 -1.1104 3.30667 29.8026 1.15145
750 1 -1.1104 3.58042 29.6242 4.00742
752 2 2.2208 1.96712 31.341 5.34413
754 1 -1.1104 3.37749 32.723 0.930369
755 1 -1.1104 3.35119 32.6997 3.98387
885 1 -1.1104 0.51509 32.6143 6.8787
759 1 -1.1104 6.29759 29.7235 1.15568
746 1 -1.1104 6.01209 32.8658 3.86556
760 1 -1.1104 6.36071 29.9169 3.74609
883 1 -1.1104 6.20864 29.7581 6.72448
1532 1 -1.1104 3.50904 46.7045 6.66151
887 1 -1.1104 3.41618 29.8514 6.8364
889 1 -1.1104 3.17935 32.6115 6.70247
1290 2 2.2208 4.78915 45.3151 -0.424311
761 1 -1.1104 6.26608 32.4381 1.01169
715 2 2.2208 10.3866 28.2033 5.11803
725 2 2.2208 7.58678 28.5168 2.39354
763 1 -1.1104 11.8335 29.8241 0.95592
765 1 -1.1104 11.6938 29.5555 3.67655
767 1 -1.1104 11.7418 32.6142 0.97631
768 2 2.2208 10.5303 31.0517 2.35313
770 1 -1.1104 11.8952 32.6936 3.74712
771 1 -1.1104 9.17238 29.6052 1.09291
774 1 -1.1104 8.99639 29.7506 3.97988
776 2 2.2208 7.50105 31.24 5.3299
778 1 -1.1104 8.96828 32.5723 1.14131
779 1 -1.1104 8.80966 32.5458 3.81448
918 1 -1.1104 9.02261 29.6452 6.81547
915 1 -1.1104 12.0905 29.2586 6.45461
920 1 -1.1104 8.75807 32.6666 6.53477
1193 2 2.2208 1.94446 25.2917 -0.29403
9732 2 2.2208 13.1737 31.0566 5.30667
9719 2 2.2208 13.3903 28.2196 2.62496
735 2 2.2208 4.70228 34.024 5.27501
737 1 -1.1104 0.575889 35.3241 1.03218
740 1 -1.1104 0.576538 35.6925 3.80583
744 2 2.2208 4.67698 36.7845 2.2252
748 1 -1.1104 3.29289 35.683 1.03547