ITEM: TIMESTEP
60000
ITEM: NUMBER OF ATOMS
17760
ITEM: BOX BOUNDS pp pp pp
-4.6820062460460127e-01 2.7808200624604346e+01
-5.5570124776236964e+00 3.3363701247762782e+02
-4.7165470401858445e-01 2.7811654704018594e+01
ITEM: ATOMS id type q x y z
1 2 2.2208 5.45349 0.113557 5.19634
2 1 -1.1104 1.16432 -4.34065 1.11911
6 1 -1.1104 1.09025 -3.79527 3.70942
10 1 -1.1104 1.2569 -1.36141 0.568837
12 2 2.2208 5.52561 -2.62504 2.20912
14 1 -1.1104 1.31747 -1.06696 3.5799
16 1 -1.1104 4.13538 -4.10654 0.956723
18 2 2.2208 2.53357 0.0896221 2.35443
19 1 -1.1104 3.97057 -4.30008 3.78743
21 2 2.2208 2.72492 -2.6916 5.01574
23 1 -1.1104 4.09925 -1.24948 0.852936
24 1 -1.1104 4.11487 -1.35747 3.51345
170 1 -1.1104 1.32185 -1.10344 6.45372
9059 2 2.2208 -0.34132 0.0473777 5.04048
676 2 2.2208 -0.351915 14.0988 13.5885
9056 2 2.2208 -0.304112 -2.84112 2.22242
8 1 -1.1104 6.78067 -4.02282 3.64677
166 1 -1.1104 1.23476 -4.15707 6.359
15 1 -1.1104 6.85979 -1.27702 3.77227
11 1 -1.1104 6.95591 -1.23984 0.905941
4 1 -1.1104 6.94257 -3.8064 0.951385
31 2 2.2208 10.8906 0.0122394 5.07518
32 1 -1.1104 12.5343 -4.11333 0.724502
34 1 -1.1104 12.4948 -4.19421 3.626
36 1 -1.1104 12.4295 -1.43402 0.75614
37 2 2.2208 11.066 -2.70025 2.40157
39 1 -1.1104 12.3492 -1.28126 3.77062
40 1 -1.1104 9.76626 -4.12751 1.10237
42 2 2.2208 8.27919 0.290422 2.261
43 1 -1.1104 9.43903 -4.07861 3.70172
45 2 2.2208 8.29309 -2.75358 5.18907
47 1 -1.1104 9.62883 -1.2484 0.949121
48 1 -1.1104 9.60476 -1.34213 3.61272
8390 2 2.2208 2.53523 -5.5458 2.38255
168 1 -1.1104 6.72522 -4.17629 6.61336
17362 2 2.2208 -0.147921 -5.4854 5.07041
8264 2 2.2208 2.54196 -5.41765 7.95444
3 1 -1.1104 1.19106 1.51475 0.969079
7 1 -1.1104 1.2514 1.54754 3.67909
13 2 2.2208 5.27936 2.91279 2.22011
17 1 -1.1104 3.77576 1.53739 0.850409
20 1 -1.1104 4.01794 1.43649 3.61156
22 2 2.2208 2.64775 2.89217 5.0992
54 2 2.2208 5.29664 5.73054 4.82919
60 1 -1.1104 0.921023 4.1905 0.776943
67 1 -1.1104 1.23499 4.3438 3.75397
71 1 -1.1104 3.84281 7.12611 0.915427
72 2 2.2208 2.36261 5.71278 2.3062
76 1 -1.1104 3.79841 4.32671 0.937507
79 1 -1.1104 3.97804 4.36293 3.79902
74 1 -1.1104 3.89866 7.1165 3.57256
58 1 -1.1104 1.23215 7.156 3.70563
56 1 -1.1104 0.996092 7.08667 0.926305
236 1 -1.1104 1.14846 4.06523 6.56927
9060 2 2.2208 -0.228814 2.87009 2.30172
9064 2 2.2208 -0.138766 5.73986 4.94226
239 1 -1.1104 4.07104 4.24319 6.46974
173 1 -1.1104 4.0031 1.47133 6.60966
9054 2 2.2208 -0.404504 16.9117 5.23879
69 1 -1.1104 6.59642 4.42955 3.4964
57 1 -1.1104 6.57379 7.23785 0.8436
5 1 -1.1104 6.82625 1.51427 0.955209
59 1 -1.1104 6.71338 7.30808 3.69615
63 1 -1.1104 6.72526 4.44975 0.623387
9 1 -1.1104 6.64675 1.5817 3.87999
33 1 -1.1104 12.3216 1.56662 0.836804
35 1 -1.1104 12.4953 1.61479 3.52991
38 2 2.2208 10.8351 2.98519 2.24868
41 1 -1.1104 9.70657 1.55784 0.904489
44 1 -1.1104 9.40487 1.45445 3.79782
46 2 2.2208 8.04757 3.14433 5.12537
84 2 2.2208 11.0084 5.53155 5.23674
88 1 -1.1104 12.4381 4.25119 0.76531
92 1 -1.1104 12.1765 4.30145 3.63967
94 1 -1.1104 9.45484 7.0663 0.699682
95 2 2.2208 8.20808 5.78572 2.08689
99 1 -1.1104 9.55384 4.39289 0.876877
102 1 -1.1104 9.60338 4.29285 3.81153
87 1 -1.1104 12.1433 6.90672 3.64145
97 1 -1.1104 9.37953 7.22754 3.51395
86 1 -1.1104 12.2514 7.2785 0.867619
269 1 -1.1104 9.46331 4.3942 6.63868
9049 2 2.2208 -0.377156 5.61426 10.8925
169 1 -1.1104 6.85195 1.45434 6.58532
448 2 2.2208 10.9607 8.59266 13.452
348 2 2.2208 -0.340618 19.9021 13.6185
55 2 2.2208 5.22675 11.3096 5.19014
61 1 -1.1104 0.978289 9.81177 0.972943
66 2 2.2208 5.26866 8.7362 2.36445
68 1 -1.1104 0.87728 9.93066 3.82399
73 2 2.2208 2.26098 11.3041 2.42914
75 2 2.2208 2.71151 8.39769 5.23525
77 1 -1.1104 3.73823 10.1099 0.962249
80 1 -1.1104 3.79949 9.85541 3.68593
107 1 -1.1104 1.01805 12.5681 1.03296
113 1 -1.1104 0.868447 12.7772 4.01274
123 1 -1.1104 3.83657 12.9566 0.885849
128 1 -1.1104 3.73641 12.7943 3.76786
78 1 -1.1104 3.81709 10.0509 6.53655
9066 2 2.2208 -0.416603 11.2662 5.43841
201 2 2.2208 -0.395066 8.46359 2.34109
8389 2 2.2208 5.33994 -5.40267 5.12931
62 1 -1.1104 1.17095 9.84049 6.5973
9053 2 2.2208 -0.384593 19.9405 2.33478
110 1 -1.1104 6.76298 13.0637 0.722772
64 1 -1.1104 6.50283 10.2693 0.820436
115 1 -1.1104 6.53874 12.7642 3.67589
70 1 -1.1104 6.63476 10.077 3.71854
85 2 2.2208 11.0242 11.3247 5.11806
89 1 -1.1104 11.8506 10.1055 0.870367
91 2 2.2208 10.7729 8.61006 2.47211
93 1 -1.1104 12.4268 9.67538 3.63759
96 2 2.2208 8.04245 11.539 2.19415
98 2 2.2208 8.16946 8.64984 5.18994
100 1 -1.1104 9.20312 9.91544 0.926357
103 1 -1.1104 9.62505 10.0736 3.76283
142 1 -1.1104 12.2916 12.8875 0.790211
146 1 -1.1104 12.459 12.7073 3.67345
153 1 -1.1104 9.42709 12.9142 0.82516
158 1 -1.1104 9.34726 12.7627 3.78908
154 1 -1.1104 9.56655 12.7376 6.51598
111 1 -1.1104 6.68612 12.68 6.58834
83 1 -1.1104 12.3434 15.5605 9.09585
310 2 2.2208 -0.331434 11.5062 10.8316
17357 2 2.2208 -0.0224117 -5.49791 10.8495
8208 2 2.2208 5.44691 -5.55581 10.9363
130 2 2.2208 2.54097 14.2874 5.07753
119 2 2.2208 5.23783 14.247 2.30122
106 2 2.2208 5.52899 16.9636 5.06928
109 1 -1.1104 1.04631 18.5795 1.10677
114 1 -1.1104 0.833023 18.4445 3.91066
116 1 -1.1104 0.764812 15.562 1.12469
120 2 2.2208 5.37671 20.0107 2.1008
121 1 -1.1104 0.928142 15.6001 3.87955
125 1 -1.1104 3.88514 18.7597 0.774993
127 2 2.2208 2.58158 17.0539 2.42069
129 1 -1.1104 3.86702 18.6942 3.30657
131 2 2.2208 2.65297 19.7961 5.14915
132 1 -1.1104 3.71547 15.5624 0.92698
134 1 -1.1104 3.91866 15.6275 3.72489
118 1 -1.1104 6.73505 15.4386 6.39293
117 1 -1.1104 1.20937 15.9272 6.67152
233 1 -1.1104 9.34923 15.567 12.1129
133 1 -1.1104 3.83896 15.6565 6.39133
512 2 2.2208 7.93312 17.0719 13.5503
9052 2 2.2208 -0.3046 0.0612245 10.6579
138 1 -1.1104 6.84334 18.5447 0.864945
122 1 -1.1104 7.00291 15.3312 3.53629
140 1 -1.1104 6.67855 15.9348 0.954848
139 1 -1.1104 6.71205 18.3374 3.52942
112 1 -1.1104 6.86012 18.2724 6.50068
160 2 2.2208 8.1239 14.0605 5.17692
150 2 2.2208 10.8884 14.2247 2.05249
141 2 2.2208 10.953 16.8912 4.79861
144 1 -1.1104 12.6956 18.571 1.0392
147 1 -1.1104 12.3464 18.5199 3.52914
148 1 -1.1104 12.242 15.6211 0.750186
151 2 2.2208 10.9575 19.8196 2.1015
152 1 -1.1104 12.5386 15.6068 3.47108
155 1 -1.1104 9.74153 18.5943 0.766887
157 2 2.2208 8.25001 16.9088 2.01258
159 1 -1.1104 9.57635 18.3439 3.32528
161 2 2.2208 8.24027 19.7822 4.93928
162 1 -1.1104 9.60123 15.7448 0.505915
164 1 -1.1104 9.66436 15.5567 3.4246
156 1 -1.1104 9.4931 18.4682 6.37222
163 1 -1.1104 9.53103 15.8213 6.37687
145 1 -1.1104 12.4226 18.2119 6.25824
199 2 2.2208 8.04244 14.1077 10.8785
539 2 2.2208 2.62905 -2.75032 -0.41408
174 1 -1.1104 4.08304 -1.39757 6.41758
172 1 -1.1104 3.97193 -4.17765 6.61253
175 2 2.2208 5.53474 0.158538 10.7547
176 1 -1.1104 1.19965 -4.07905 12.3563
180 1 -1.1104 1.1763 -4.15291 9.45024
184 1 -1.1104 1.039 -1.31887 12.2219
186 2 2.2208 5.29985 -2.76098 7.90351
188 1 -1.1104 0.918784 -1.60739 9.55414
190 1 -1.1104 4.02688 -4.0229 12.2975
192 2 2.2208 2.63974 0.307354 7.93634
193 1 -1.1104 3.9213 -4.03521 9.4403
195 2 2.2208 2.50806 -2.6701 10.8168
197 1 -1.1104 3.78172 -1.29166 12.2272
198 1 -1.1104 3.76415 -1.30357 9.29455
484 2 2.2208 5.24103 19.9655 13.4501
510 2 2.2208 10.8014 19.9314 13.541
350 2 2.2208 -0.381315 8.55464 13.6347
570 2 2.2208 8.11982 2.88244 -0.514378
185 1 -1.1104 6.85641 -1.43577 12.1741
210 1 -1.1104 9.72454 -1.4251 6.45541
205 1 -1.1104 12.337 -4.20409 6.29564
208 1 -1.1104 9.58148 -4.13619 6.6605
207 1 -1.1104 12.3194 -1.16547 6.58497
178 1 -1.1104 6.949 -4.15131 11.9688
189 1 -1.1104 6.89521 -1.35427 9.38163
171 1 -1.1104 6.95052 -1.41352 6.66541
182 1 -1.1104 6.64477 -3.94343 9.22726
211 2 2.2208 11.1682 -0.0999074 10.6805
212 1 -1.1104 12.4686 -4.09707 12.0172
214 1 -1.1104 12.5361 -4.20689 9.34766
216 1 -1.1104 12.7198 -1.52686 12.6008
217 2 2.2208 11.1011 -2.90628 7.88305
219 1 -1.1104 12.573 -1.39408 9.5609
220 1 -1.1104 9.69558 -4.14987 12.3153
222 2 2.2208 8.41093 0.129131 7.83066
223 1 -1.1104 9.71101 -4.18398 9.34576
225 2 2.2208 8.23786 -2.67557 10.6005
227 1 -1.1104 9.6838 -1.2335 12.0912
228 1 -1.1104 9.89326 -1.29157 9.27445
9055 2 2.2208 -0.405399 3.04902 7.92861
234 1 -1.1104 1.10574 7.01875 6.57741
304 2 2.2208 -0.277536 16.9071 10.8375
167 1 -1.1104 1.22275 1.65716 6.6158
238 1 -1.1104 3.77357 7.07135 6.71712
177 1 -1.1104 1.02799 1.3835 12.3053
181 1 -1.1104 1.2142 1.46819 9.40211
187 2 2.2208 5.44556 3.00379 7.90885
191 1 -1.1104 3.87208 1.64666 12.2483
194 1 -1.1104 4.1266 1.44709 9.4062
196 2 2.2208 2.48712 2.93866 10.7717
240 2 2.2208 5.52381 5.64501 10.7741
246 1 -1.1104 0.99079 4.17326 12.2052
251 1 -1.1104 1.00352 4.26043 9.16988
255 1 -1.1104 3.67809 7.25831 12.2241
256 2 2.2208 2.40446 5.52848 7.88224
258 1 -1.1104 3.96708 6.99167 9.44367
260 1 -1.1104 3.86656 4.44909 12.0541
262 1 -1.1104 4.01673 4.28471 9.21292
244 1 -1.1104 1.14683 7.0922 9.20504
242 1 -1.1104 0.920719 7.15062 12.2268
267 1 -1.1104 9.77471 7.09212 6.28684
235 1 -1.1104 6.85127 7.19579 6.57457
183 1 -1.1104 7.12764 1.72942 9.3111
237 1 -1.1104 6.78105 4.36494 6.47378
266 1 -1.1104 12.3759 4.31749 6.49523
243 1 -1.1104 6.87916 7.43051 12.416
248 1 -1.1104 6.87418 4.52893 12.2417
253 1 -1.1104 6.65542 4.14734 9.25401
209 1 -1.1104 9.65995 1.55671 6.30563
265 1 -1.1104 12.627 7.09083 6.56275
245 1 -1.1104 6.87316 6.90459 9.58364
179 1 -1.1104 6.81963 1.54034 12.0475
206 1 -1.1104 12.426 1.52266 6.42066
213 1 -1.1104 12.4291 1.63042 12.094
215 1 -1.1104 12.3443 1.24751 9.20624
218 2 2.2208 11.0604 2.78698 7.88858
221 1 -1.1104 9.51996 1.51851 12.2187
224 1 -1.1104 9.80069 1.54676 9.22438
226 2 2.2208 8.47401 2.8674 10.7181
268 1 -1.1104 9.80704 4.39326 9.42356
271 1 -1.1104 9.64661 4.26947 12.2206
275 2 2.2208 8.22847 5.79263 8.00812
276 2 2.2208 11.0346 5.65269 10.7995
280 1 -1.1104 12.3951 4.49433 12.2537
283 1 -1.1104 12.5282 4.2632 9.37122
285 1 -1.1104 9.5357 7.22009 12.0913
279 1 -1.1104 12.4443 7.18751 9.3749
278 1 -1.1104 12.2645 7.18582 12.1321
273 1 -1.1104 9.66721 7.10786 9.28292
9050 2 2.2208 -0.202121 8.31701 7.95053
53 1 -1.1104 12.4496 15.6291 11.9872
108 1 -1.1104 1.01077 13.0128 6.63733
124 1 -1.1104 3.89456 12.7679 6.68062
241 2 2.2208 5.23682 11.3793 10.7095
247 1 -1.1104 1.03177 10.2024 12.2277
250 2 2.2208 5.35368 8.41533 7.98799
252 1 -1.1104 1.02826 9.94675 9.20059
257 2 2.2208 2.36782 11.4103 8.04747
259 2 2.2208 2.62524 8.46331 10.5648
261 1 -1.1104 3.98745 10.1767 12.1651
263 1 -1.1104 3.83052 9.7982 9.32078
204 1 -1.1104 3.84768 12.734 9.38287
287 1 -1.1104 4.00554 12.9052 12.1187
294 1 -1.1104 1.17528 12.9934 9.40338
299 1 -1.1104 1.18661 12.8764 12.3595
683 2 2.2208 -0.335904 11.4468 -0.402712
303 2 2.2208 -0.31385 14.2327 8.08374
30 2 2.2208 2.52949 14.2877 10.7255
65 1 -1.1104 6.49434 9.86101 6.43249
143 1 -1.1104 12.1833 12.9936 6.31981
90 1 -1.1104 12.5533 9.97094 6.49138
101 1 -1.1104 9.68118 10.0526 6.51377
290 1 -1.1104 6.7257 12.8584 9.41555
254 1 -1.1104 6.66455 10.0048 9.18996
249 1 -1.1104 6.84217 10.065 12.0981
297 1 -1.1104 6.87825 12.849 12.3842
264 1 -1.1104 9.48163 10.1422 9.31438
270 1 -1.1104 9.73342 9.97104 12.0144
272 2 2.2208 8.24478 8.71387 10.8165
274 2 2.2208 8.20567 11.4249 7.89834
277 2 2.2208 11.165 11.3019 10.8459
281 1 -1.1104 12.4947 9.96249 12.1283
282 2 2.2208 10.9852 8.54049 8.0613
284 1 -1.1104 12.5081 9.87117 9.49948
26 1 -1.1104 12.4937 12.7584 12.347
49 1 -1.1104 12.7345 12.6789 9.29505
104 1 -1.1104 9.83431 12.8199 12.0423
136 1 -1.1104 9.61888 12.8937 9.22009
229 2 2.2208 8.11784 19.7399 10.605
352 2 2.2208 2.36826 0.0246085 13.6528
9068 2 2.2208 -0.167634 19.9413 7.94649
126 1 -1.1104 4.00511 18.3144 6.37967
28 1 -1.1104 1.36452 18.7204 6.67411
295 2 2.2208 5.1638 14.1902 7.81151
292 1 -1.1104 1.00168 15.8501 9.31726
291 1 -1.1104 0.832629 18.5269 9.63374
300 2 2.2208 5.24919 17.1478 10.7489
298 1 -1.1104 1.03583 18.4273 12.3052
293 2 2.2208 5.41321 19.8087 7.7882
51 2 2.2208 2.38184 19.7699 10.6971
52 1 -1.1104 3.84675 15.76 11.9525
202 1 -1.1104 0.936643 15.6937 12.2209
230 1 -1.1104 3.82264 18.2871 9.30035
231 1 -1.1104 3.7286 15.5012 9.14721
232 2 2.2208 2.4527 17.2763 7.99865
286 1 -1.1104 3.93042 18.4635 12.1186
203 1 -1.1104 6.65813 15.7642 12.212
25 2 2.2208 10.8908 16.9554 10.8469
82 2 2.2208 10.8853 19.5575 7.74795
135 2 2.2208 8.1965 16.881 7.94932
29 1 -1.1104 9.39531 15.803 9.41726
50 1 -1.1104 12.3988 18.2912 9.38308
105 1 -1.1104 9.53676 18.6017 12.3844
149 1 -1.1104 12.1259 15.6559 6.34007
289 1 -1.1104 6.46103 15.74 9.17548
288 1 -1.1104 6.65706 18.3929 9.49408
27 1 -1.1104 12.3891 18.3987 12.062
81 2 2.2208 10.9442 14.1398 7.93447
137 1 -1.1104 9.65837 18.4933 9.3149
296 1 -1.1104 6.68542 18.6386 12.1075
384 2 2.2208 8.03962 0.138527 13.4023
447 2 2.2208 8.2124 5.79934 13.5742
9051 2 2.2208 -0.231559 -2.69339 7.90493
8334 2 2.2208 8.07125 -5.40448 2.40745
8463 2 2.2208 5.39359 -5.44059 -0.268051
9100 2 2.2208 -0.409478 17.0004 -0.317669
8173 2 2.2208 8.12974 -5.43952 7.9183
8704 2 2.2208 11.0079 -5.44187 -0.36295
420 2 2.2208 2.48467 5.61669 13.4583
485 2 2.2208 5.17571 14.1294 13.5666
351 2 2.2208 5.48664 -2.73715 13.5306
9412 2 2.2208 -0.359382 2.89707 13.6315
483 2 2.2208 2.41083 17.0389 13.5887
630 2 2.2208 10.8151 11.4947 -0.478395
311 2 2.2208 5.18183 -0.102625 16.439
312 1 -1.1104 1.16039 -4.19872 17.8955
316 1 -1.1104 1.11854 -4.12921 14.9429
324 1 -1.1104 1.07636 -1.11819 17.7957
326 2 2.2208 5.20829 -2.75127 19.4081
328 1 -1.1104 0.936806 -1.39624 14.9659
332 1 -1.1104 3.80613 -4.15245 18.0726
334 2 2.2208 2.54288 0.204004 19.1154
335 1 -1.1104 3.93638 -3.89854 15.0609
339 2 2.2208 2.54052 -2.92191 16.4526
341 1 -1.1104 3.71551 -1.27558 17.8827
342 1 -1.1104 3.79315 -1.26722 15.0917
329 1 -1.1104 1.10406 -1.30349 20.5402
9404 2 2.2208 -0.308698 -2.57018 19.321
8527 2 2.2208 11.3371 -5.50973 22.0681
606 2 2.2208 8.23283 17.1726 24.9404
336 1 -1.1104 3.92379 -4.03616 20.8031
653 2 2.2208 -0.153002 0.0252809 16.426
17717 2 2.2208 -0.291885 -5.51939 22.2139
325 1 -1.1104 6.75606 -0.904189 17.9102
314 1 -1.1104 6.70714 -3.74934 17.7466
330 1 -1.1104 6.57312 -1.36912 15.0267
320 1 -1.1104 6.604 -4.20411 14.9182
354 2 2.2208 10.9523 0.317546 16.3766
355 1 -1.1104 12.5319 -4.12697 17.9982
357 1 -1.1104 12.4696 -4.16646 15.1065
361 1 -1.1104 12.528 -1.18383 18.1399
362 2 2.2208 11.1005 -2.71049 19.4344
364 1 -1.1104 12.3763 -1.33839 15.2412
366 1 -1.1104 9.67767 -3.67238 17.9689
368 2 2.2208 8.24339 0.134052 19.4495
369 1 -1.1104 9.83238 -4.12319 15.3287
373 2 2.2208 8.3045 -2.56519 16.3529
375 1 -1.1104 9.76538 -1.15753 17.6794
376 1 -1.1104 9.63198 -1.02368 14.8194
655 2 2.2208 -0.112903 5.72041 16.4738
543 1 -1.1104 9.39232 15.6201 26.2256
331 1 -1.1104 6.53777 -1.38597 20.8022
321 1 -1.1104 6.542 -4.08474 20.7943
365 1 -1.1104 12.4474 -1.29216 20.811
333 1 -1.1104 3.93468 1.49159 17.7617
313 1 -1.1104 1.1237 1.74216 17.8713
318 1 -1.1104 1.18003 1.4644 15.0341
327 2 2.2208 5.30576 2.96908 19.265
337 1 -1.1104 3.91068 1.47932 15.0406
340 2 2.2208 2.62576 3.032 16.4522
387 2 2.2208 5.52363 5.80717 16.4903
389 1 -1.1104 1.04 7.28771 17.7201
391 1 -1.1104 1.0763 7.26439 14.8399
395 1 -1.1104 1.20089 4.33076 17.7708
400 1 -1.1104 1.08698 4.39189 14.9609
408 1 -1.1104 3.95807 7.37981 17.7991
409 2 2.2208 2.57651 5.92087 19.3082
411 1 -1.1104 3.80434 7.22072 14.8106
414 1 -1.1104 3.88952 4.4392 17.7869
416 1 -1.1104 3.80415 4.33033 14.9912
412 1 -1.1104 3.84064 7.51007 20.5876
8459 2 2.2208 5.34815 -5.4716 22.337
575 2 2.2208 11.0822 20.0659 25.05
545 2 2.2208 5.20652 17.0444 27.6649
386 2 2.2208 11.1173 3.04198 13.7135
652 2 2.2208 -0.357728 2.93319 19.2627
390 1 -1.1104 6.69741 7.41113 17.9273
397 1 -1.1104 6.68189 4.5122 17.8225
393 1 -1.1104 6.68344 7.06515 15.2145
322 1 -1.1104 6.68583 1.55054 14.921
404 1 -1.1104 6.8143 4.40068 15.0356
315 1 -1.1104 6.79586 1.68207 17.9804
356 1 -1.1104 12.5003 1.57829 17.7556
359 1 -1.1104 12.3358 1.63781 15.0115
363 2 2.2208 10.9563 2.92942 19.1875
367 1 -1.1104 9.65032 1.52663 18.0209
371 1 -1.1104 9.55476 1.7276 15.0194
374 2 2.2208 8.27913 2.99442 16.5726
423 2 2.2208 11.0073 5.87115 16.3179
428 1 -1.1104 12.4846 4.56025 17.838
431 1 -1.1104 12.5231 4.52641 15.0469
435 1 -1.1104 9.60407 7.06147 17.6367
436 2 2.2208 8.24396 5.78611 19.1352
441 1 -1.1104 9.55649 4.34866 18.0537
443 1 -1.1104 9.66257 4.30131 15.0682
438 1 -1.1104 9.743 7.33977 14.9782
426 1 -1.1104 12.4851 7.26647 14.9512
425 1 -1.1104 12.2399 7.24498 17.8908
427 1 -1.1104 12.2449 7.50195 20.6965
548 1 -1.1104 12.4684 18.5038 26.3923
9410 2 2.2208 -0.230929 -0.0366382 27.5374
513 2 2.2208 8.25557 19.8677 27.6508
511 2 2.2208 10.9678 14.1778 13.7523
388 2 2.2208 5.3607 11.4528 16.5851
396 1 -1.1104 1.33338 10.3267 17.6321
399 2 2.2208 5.34046 8.78587 19.4026
402 1 -1.1104 0.979004 10.1419 14.9891
410 2 2.2208 2.40416 11.603 19.3233
413 2 2.2208 2.27785 8.53583 16.396
415 1 -1.1104 3.88149 10.0879 17.9731
418 1 -1.1104 3.89245 10.0503 15.3468
451 1 -1.1104 0.785883 13.0027 18.1207
455 1 -1.1104 1.22948 12.7296 15.2371
471 1 -1.1104 3.75443 12.8335 18.1294
474 1 -1.1104 3.89188 12.9822 15.1157
403 1 -1.1104 0.922954 9.93446 20.623
8534 2 2.2208 2.57042 -5.49873 19.3403
648 2 2.2208 -0.46025 19.7819 24.9507
475 1 -1.1104 3.78914 12.906 20.9864
459 1 -1.1104 6.8068 12.8478 15.2364
453 1 -1.1104 6.78493 13.0067 17.9508
407 1 -1.1104 6.83712 10.291 20.8303
406 1 -1.1104 6.78191 9.9656 15.0884
398 1 -1.1104 6.69362 10.1612 18.0501
424 2 2.2208 10.6482 11.5341 16.6163
429 1 -1.1104 12.0675 10.3445 17.8302
430 2 2.2208 11.0452 8.73687 19.3304
433 1 -1.1104 12.3063 9.96737 14.9761
437 2 2.2208 8.13505 11.4778 19.3113
440 2 2.2208 8.28451 8.49891 16.3975
442 1 -1.1104 9.41289 9.98477 17.8325
445 1 -1.1104 9.53312 10.0201 14.8774
487 1 -1.1104 12.5577 13.1097 17.9761
489 1 -1.1104 12.1694 12.8023 15.0873
498 1 -1.1104 9.46146 12.892 17.9971
501 1 -1.1104 9.37248 13.1337 15.0365
505 2 2.2208 8.0992 14.516 16.4662
494 2 2.2208 11.0317 14.3554 19.2466
8535 2 2.2208 5.3294 -5.57081 16.5225
669 2 2.2208 -0.397354 2.78089 24.9927
8493 2 2.2208 11.1181 -5.46946 16.508
465 2 2.2208 5.26149 14.289 19.2567
607 1 -1.1104 6.71471 18.4108 26.2082
478 2 2.2208 2.43265 14.18 16.7043
8479 2 2.2208 8.04989 -5.29292 19.3991
450 2 2.2208 5.26613 17.1526 16.3547
452 1 -1.1104 0.882258 18.4007 18.0226
457 1 -1.1104 1.1559 18.5746 15.051
463 1 -1.1104 1.40474 15.8608 17.87
466 2 2.2208 5.55425 19.9312 19.0564
467 1 -1.1104 1.20129 15.5801 15.0765
472 1 -1.1104 3.83001 18.3208 17.6747
473 2 2.2208 2.39059 17.0305 19.4977
476 1 -1.1104 3.91995 18.3712 14.7818
479 2 2.2208 2.36551 19.7755 16.3837
480 1 -1.1104 3.86326 15.6614 17.988
481 1 -1.1104 3.88828 15.7128 14.9115
673 2 2.2208 -0.35128 19.8716 19.3391
540 2 2.2208 2.4527 2.92069 27.5852
482 1 -1.1104 3.82692 15.7791 20.9533
605 2 2.2208 5.19407 11.5029 27.7534
461 1 -1.1104 6.67299 18.4044 15.1641
454 1 -1.1104 6.82699 18.6716 17.7865
469 1 -1.1104 6.59692 15.6564 15.0449
464 1 -1.1104 6.75702 15.8122 17.9003
486 2 2.2208 11.0334 17.1994 16.5335
488 1 -1.1104 12.4325 18.7433 17.8731
491 1 -1.1104 12.4529 18.8911 15.0192
493 1 -1.1104 12.4234 15.8483 17.5773
495 2 2.2208 10.8197 20.0342 19.2367
496 1 -1.1104 12.6109 15.9656 14.7989
499 1 -1.1104 9.60389 18.6807 17.9122
500 2 2.2208 8.24985 17.0523 19.4152
503 1 -1.1104 9.61781 18.4812 15.066
506 2 2.2208 8.16771 19.8389 16.2459
507 1 -1.1104 9.64955 15.6557 17.7073
508 1 -1.1104 9.58713 15.6604 14.9364
497 1 -1.1104 12.4123 15.9794 20.7133
462 1 -1.1104 6.88368 18.6849 20.5467
492 1 -1.1104 12.4705 18.5909 20.6627
509 1 -1.1104 9.74844 15.7028 20.5632
609 1 -1.1104 9.80725 18.5903 26.2761
343 1 -1.1104 3.80592 -1.07433 20.672
9411 2 2.2208 -0.280495 -2.70026 24.8524
317 1 -1.1104 1.21742 -4.13254 20.7708
514 2 2.2208 5.4673 -0.00393274 22.0955
515 1 -1.1104 1.05503 -4.12314 23.5591
519 1 -1.1104 1.08644 -3.98257 26.4284
523 1 -1.1104 1.44233 -1.21986 23.4277
525 2 2.2208 5.45735 -2.65458 25.2691
527 1 -1.1104 1.14819 -1.15713 26.2286
529 1 -1.1104 3.96217 -4.08667 23.7184
531 2 2.2208 2.72517 0.293491 24.9154
532 1 -1.1104 3.77306 -4.1429 26.5742
534 2 2.2208 2.62429 -2.72015 22.2976
536 1 -1.1104 4.1226 -1.07397 23.4959
537 1 -1.1104 4.07683 -1.31253 26.2268
603 2 2.2208 5.30854 5.63599 27.6585
9407 2 2.2208 13.5934 14.2348 27.7383
662 2 2.2208 13.5059 8.81785 27.7144
370 1 -1.1104 9.61375 -4.13488 20.7252
521 1 -1.1104 6.76532 -4.01052 26.4284
524 1 -1.1104 6.71817 -1.37385 23.6804
377 1 -1.1104 9.50834 -1.31616 20.5985
358 1 -1.1104 12.5661 -4.01337 20.8973
517 1 -1.1104 6.76225 -4.1746 23.4503
528 1 -1.1104 6.95992 -1.21831 26.5293
550 2 2.2208 11.0912 0.153545 22.0061
551 1 -1.1104 12.5593 -3.95251 23.5595
553 1 -1.1104 12.5009 -4.08626 26.3114
555 1 -1.1104 12.548 -1.22015 23.542
556 2 2.2208 11.1389 -2.63911 24.9877
558 1 -1.1104 12.4377 -1.22902 26.4896
559 1 -1.1104 9.97902 -3.92247 23.3136
561 2 2.2208 8.22023 0.148854 25.0465
562 1 -1.1104 9.64565 -4.20952 26.2575
564 2 2.2208 8.1104 -2.86475 22.1162
566 1 -1.1104 9.6711 -1.23084 23.5152
567 1 -1.1104 9.63466 -1.3037 26.3624
538 2 2.2208 5.4974 0.153504 27.7173
422 2 2.2208 2.47415 11.2367 13.7733
401 1 -1.1104 1.48175 4.26965 20.5779
338 1 -1.1104 3.97612 1.6321 20.593
385 2 2.2208 11.1337 -2.56477 13.7806
319 1 -1.1104 1.16024 1.68328 20.7075
417 1 -1.1104 4.10566 4.53284 20.5568
392 1 -1.1104 0.945949 7.17339 20.7617
516 1 -1.1104 1.0683 1.41323 23.6274
520 1 -1.1104 1.16771 1.58999 26.3117
526 2 2.2208 5.51925 2.85657 24.6939
530 1 -1.1104 3.93488 1.58234 23.4346
533 1 -1.1104 4.1052 1.74662 26.3901
535 2 2.2208 2.5649 3.03221 22.0935
579 2 2.2208 5.3867 5.85895 21.9901
585 1 -1.1104 1.06843 3.91214 23.7261
590 1 -1.1104 0.986747 4.6134 26.2633
595 2 2.2208 2.53951 5.69146 24.638
599 1 -1.1104 4.01685 4.47453 23.344
601 1 -1.1104 3.91693 4.38288 26.1516
594 1 -1.1104 4.00272 7.19444 23.503
583 1 -1.1104 1.15085 7.33181 26.2526
581 1 -1.1104 1.0439 7.03669 23.4084
597 1 -1.1104 3.73867 7.3128 26.3674
347 1 -1.1104 6.46653 15.7491 23.5128
405 1 -1.1104 6.81382 4.36439 20.5321
394 1 -1.1104 6.63987 7.40205 20.8641
360 1 -1.1104 12.6498 1.72811 20.6673
323 1 -1.1104 6.68455 1.51689 20.7274
439 1 -1.1104 9.41965 7.33575 20.588
432 1 -1.1104 12.4314 4.38982 20.6491
372 1 -1.1104 9.74188 1.74031 20.7995
522 1 -1.1104 6.77182 1.53103 26.2176
587 1 -1.1104 6.8318 4.41486 23.4194
592 1 -1.1104 6.83403 4.23924 26.2905
444 1 -1.1104 9.55364 4.54854 20.5613
518 1 -1.1104 6.78122 1.34296 23.3385
582 1 -1.1104 6.70923 7.20597 23.5625
584 1 -1.1104 6.66575 6.95404 26.231
552 1 -1.1104 12.517 1.72914 23.4325
554 1 -1.1104 12.4233 1.62211 26.2927
557 2 2.2208 10.9034 3.05329 24.936
560 1 -1.1104 9.53327 1.77697 23.5103
563 1 -1.1104 9.68814 1.53218 26.5574
565 2 2.2208 8.11484 3.11294 21.9567
611 1 -1.1104 9.52519 4.52452 26.3497
613 1 -1.1104 9.73843 4.41382 23.5439
617 2 2.2208 8.17425 5.66835 24.9758
618 2 2.2208 10.8138 5.91761 22.0612
621 1 -1.1104 12.1486 7.59404 26.5064
622 1 -1.1104 12.2372 4.66655 23.4287
625 1 -1.1104 12.2823 4.59458 26.1317
627 1 -1.1104 9.66353 7.45218 23.4156
620 1 -1.1104 12.5526 7.42362 23.5626
615 1 -1.1104 9.38069 7.25284 26.2811
682 2 2.2208 -0.348059 8.62453 24.9248
456 1 -1.1104 0.95763 12.6251 20.8533
680 2 2.2208 -0.367685 11.3753 22.2291
419 1 -1.1104 3.93843 10.0844 20.9202
636 1 -1.1104 4.01484 12.6066 23.6837
640 1 -1.1104 0.956534 12.9986 26.5147
580 2 2.2208 5.30681 11.4915 22.2047
586 1 -1.1104 1.04154 10.0437 23.4269
589 2 2.2208 5.33979 8.47944 24.9047
591 1 -1.1104 0.972402 10.232 26.5186
596 2 2.2208 2.55399 11.349 25.0449
598 2 2.2208 2.34745 8.61981 22.0475
600 1 -1.1104 3.7783 9.93365 23.5787
602 1 -1.1104 3.87781 10.0512 26.3182
646 1 -1.1104 1.01437 12.8012 23.5786
379 1 -1.1104 3.80385 12.9031 26.4259
654 2 2.2208 -0.377482 11.3461 16.4249
578 1 -1.1104 9.53261 18.4315 23.345
460 1 -1.1104 6.75883 13.0361 20.6412
446 1 -1.1104 9.48667 10.1913 20.6772
490 1 -1.1104 12.2989 12.9274 20.5353
635 1 -1.1104 6.55245 12.8475 26.2545
434 1 -1.1104 12.2805 10.1713 20.5722
644 1 -1.1104 6.6681 13.0074 23.5537
593 1 -1.1104 6.76237 9.90966 26.3104
588 1 -1.1104 6.81504 10.1711 23.6619
631 2 2.2208 8.2124 14.3329 22.1505
502 1 -1.1104 9.47234 12.9797 20.7817
608 1 -1.1104 9.38801 12.9092 26.1725
577 1 -1.1104 9.58054 13.0025 23.3533
547 1 -1.1104 12.4299 12.9296 26.1951
542 1 -1.1104 12.5184 12.9104 23.3119
610 1 -1.1104 9.46921 10.0646 26.3394
612 1 -1.1104 9.67377 10.353 23.5283
614 2 2.2208 8.11754 8.64661 22.1047
616 2 2.2208 8.21584 11.4187 24.7946
619 2 2.2208 11.0207 11.4477 21.8665
623 1 -1.1104 12.5042 10.1926 23.1929
624 2 2.2208 11.0657 8.67319 24.8362
626 1 -1.1104 12.1401 10.3128 26.1813
679 2 2.2208 -0.240969 5.75245 27.549
477 1 -1.1104 3.81991 18.6236 20.5363
458 1 -1.1104 1.23688 18.3729 20.9606
643 2 2.2208 5.20152 14.16 24.9137
573 2 2.2208 2.46355 14.2188 22.3215
650 2 2.2208 -0.270243 17.1039 22.1821
468 1 -1.1104 0.979639 15.5344 20.5884
383 1 -1.1104 3.68066 18.4523 26.4517
642 2 2.2208 5.33589 19.8141 24.9949
382 2 2.2208 2.34704 17.0477 25.0432
639 1 -1.1104 1.11223 15.8397 26.4721
647 2 2.2208 5.38886 17.3021 22.1561
381 1 -1.1104 3.86101 15.7407 26.3084
634 1 -1.1104 3.82077 18.4167 23.5906
638 1 -1.1104 0.779621 18.6181 26.7265
574 2 2.2208 2.5287 19.8354 21.9968
645 1 -1.1104 1.06285 18.3922 23.7339
345 1 -1.1104 3.64723 15.4849 23.6195
346 1 -1.1104 0.892348 15.5115 23.5402
541 2 2.2208 10.9606 17.2869 21.924
632 2 2.2208 8.2151 20.0823 22.2063
576 1 -1.1104 12.4089 15.6174 26.1392
633 1 -1.1104 9.72102 15.7342 23.4186
378 2 2.2208 11.0168 16.9835 27.4298
571 2 2.2208 11.0245 14.1122 24.7528
504 1 -1.1104 9.61404 18.7121 20.6843
470 1 -1.1104 6.6847 15.8059 20.7604
549 1 -1.1104 12.5237 15.7487 23.5852
637 1 -1.1104 6.80102 15.7247 26.2633
641 1 -1.1104 6.8451 18.568 23.6601
546 1 -1.1104 12.262 18.4705 23.4554
344 2 2.2208 8.07235 14.3136 27.4797
349 2 2.2208 0.0672515 0.109101 21.968
629 2 2.2208 7.99336 8.5146 27.758
604 2 2.2208 2.55684 8.61649 27.7543
675 2 2.2208 -0.101082 16.9232 16.5253
569 2 2.2208 8.4212 -2.61589 27.8254
449 2 2.2208 8.17872 11.4152 13.7737
572 2 2.2208 2.37925 20.0094 27.8023
421 2 2.2208 5.1223 8.85301 13.7976
628 2 2.2208 11.0622 5.88996 27.5885
544 2 2.2208 2.38936 14.2505 27.7234
568 2 2.2208 11.1689 0.260296 27.793
9409 2 2.2208 -0.277566 -2.77918 13.7251
353 2 2.2208 5.23622 3.07046 13.7308
687 2 2.2208 5.30335 22.5187 5.04417
689 1 -1.1104 1.32554 24.2926 0.874507
690 1 -1.1104 1.12565 24.2304 3.76238
691 1 -1.1104 0.776056 21.4598 0.924807
693 2 2.2208 5.30292 25.5269 2.23821
694 1 -1.1104 1.14338 21.1761 3.69344
696 1 -1.1104 4.13962 24.2285 0.72631
697 2 2.2208 2.49781 22.7477 2.32371
699 1 -1.1104 3.89004 24.2632 3.61874
700 2 2.2208 2.61155 25.4793 5.18393
701 1 -1.1104 3.91874 21.4996 0.96584
703 1 -1.1104 3.77444 21.5083 3.70064
695 1 -1.1104 1.13913 27.0361 3.86535
692 1 -1.1104 1.31975 27.0196 0.87578
704 1 -1.1104 3.88359 27.1524 3.80584
713 1 -1.1104 6.86709 26.8315 3.84239
702 1 -1.1104 4.01625 27.1372 0.984959
835 1 -1.1104 3.78948 21.3738 6.40126
828 1 -1.1104 1.54832 24.3299 6.88241
1320 2 2.2208 -0.363799 22.8235 -0.47721
834 1 -1.1104 4.02413 23.9537 6.40103
710 1 -1.1104 6.60093 21.2868 0.57939
712 1 -1.1104 6.64695 21.0167 3.74265
711 1 -1.1104 6.65436 26.9974 1.03513
709 1 -1.1104 6.77648 23.885 3.80886
708 1 -1.1104 6.83364 24.1983 0.58713
714 2 2.2208 10.7886 22.6086 4.98007
716 1 -1.1104 12.4068 24.0756 0.878264
717 1 -1.1104 12.106 24.1793 3.61454
718 1 -1.1104 12.195 21.1182 0.504214
720 2 2.2208 10.9122 25.5567 2.17685
723 1 -1.1104 9.6638 24.1646 0.706745
724 2 2.2208 8.14394 22.6309 2.09471
726 1 -1.1104 9.48103 24.0877 3.53959
727 2 2.2208 8.30389 25.5177 5.19694
728 1 -1.1104 9.58397 21.3718 0.654891
730 1 -1.1104 9.3572 21.3467 3.78803
721 1 -1.1104 12.342 21.3188 3.56132
719 1 -1.1104 12.2416 27.1045 3.50315
1212 1 -1.1104 12.4212 27.0766 0.942643
729 1 -1.1104 9.53765 26.9651 1.04114
731 1 -1.1104 9.61457 26.853 3.87337
722 1 -1.1104 12.1769 26.913 6.07217
861 1 -1.1104 12.3005 24.1345 6.28623
864 1 -1.1104 9.57129 24.1055 6.36583
865 1 -1.1104 9.37344 21.1528 6.54753
866 1 -1.1104 9.63521 26.9246 6.49738
832 1 -1.1104 6.66327 21.1568 6.43798
833 1 -1.1104 6.84121 27.0565 6.80727
688 2 2.2208 5.44068 28.2775 5.21388
698 2 2.2208 2.40426 28.3108 2.3183
736 1 -1.1104 0.842856 29.7386 0.547893
739 1 -1.1104 1.16539 29.8258 3.51247
742 1 -1.1104 0.919739 32.5114 1.03219
743 2 2.2208 5.2052 31.1013 2.23674
745 1 -1.1104 1.16624 32.5898 3.71255
747 1 -1.1104 3.69445 29.8404 0.587254
750 1 -1.1104 3.82069 29.6263 3.45501
752 2 2.2208 2.64995 31.0108 5.03258
754 1 -1.1104 3.84021 32.7589 0.653304
755 1 -1.1104 3.99863 32.3855 3.59665
881 1 -1.1104 0.94121 29.868 6.42776
9599 2 2.2208 -0.207712 25.4604 7.94085
885 1 -1.1104 0.937671 32.6056 6.46232
761 1 -1.1104 6.71065 32.6152 0.911317
759 1 -1.1104 6.43598 29.722 0.764209
746 1 -1.1104 6.64165 32.5655 3.64358
868 3 0 11.8086 24.8804 13.2079
889 1 -1.1104 3.93873 32.7333 6.3748
886 1 -1.1104 6.76582 32.6901 6.53993
9734 2 2.2208 -0.32265 36.7598 2.23693
760 1 -1.1104 6.82962 29.8976 3.6972
715 2 2.2208 10.8356 28.3444 5.03248
725 2 2.2208 7.94675 28.39 2.22998
763 1 -1.1104 12.2425 30.0539 0.798783
765 1 -1.1104 12.3408 30.0363 3.59283
767 1 -1.1104 12.5267 32.6352 0.767305
768 2 2.2208 10.9368 31.3068 2.2076
770 1 -1.1104 12.2847 32.8427 3.47096
771 1 -1.1104 9.41219 29.8152 0.872324
774 1 -1.1104 9.55195 29.6645 3.53031
776 2 2.2208 8.24488 31.2603 5.10146
778 1 -1.1104 9.686 32.5609 0.848771
779 1 -1.1104 9.4391 32.6883 3.85474
920 1 -1.1104 9.41086 32.8378 6.42426
917 1 -1.1104 12.1139 32.7887 6.22303
918 1 -1.1104 9.35467 29.7236 6.36387
915 1 -1.1104 12.126 29.8537 6.77417
883 1 -1.1104 6.61301 29.9783 6.55413
9713 2 2.2208 13.6084 39.6439 8.02506
735 2 2.2208 5.34681 33.9662 5.081
737 1 -1.1104 1.18773 35.2584 0.723616
740 1 -1.1104 1.12166 35.3416 3.69231
744 2 2.2208 5.69123 36.7234 2.39831
748 1 -1.1104 3.99387 35.2529 1.04854
749 2 2.2208 2.4534 33.9526 2.15978
751 1 -1.1104 3.81821 35.3218 3.85596
753 2 2.2208 2.66171 36.7532 4.98872
781 2 2.2208 5.22918 39.6866 5.27859