ITEM: TIMESTEP
30000
ITEM: NUMBER OF ATOMS
17760
ITEM: BOX BOUNDS pp pp pp
-4.5933809904203321e-01 2.7799338099042171e+01
-5.5691762386758441e+00 3.3364917623868160e+02
-4.7955497579267803e-01 2.7819554975792784e+01
ITEM: ATOMS id type q x y z
1 2 2.2208 5.40106 0.37168 5.20081
2 1 -1.1104 1.24952 -3.97526 0.81007
6 1 -1.1104 1.18921 -3.98274 3.60362
10 1 -1.1104 1.28871 -1.04079 0.902949
12 2 2.2208 5.44942 -2.49376 2.37099
14 1 -1.1104 1.36642 -1.34072 3.69844
16 1 -1.1104 4.10769 -4.00602 1.30524
18 2 2.2208 2.65955 0.127439 2.44679
19 1 -1.1104 3.97406 -3.99028 3.73422
21 2 2.2208 2.59342 -2.61152 5.07104
23 1 -1.1104 3.93812 -1.15881 0.921252
24 1 -1.1104 4.3931 -1.27426 3.81649
171 1 -1.1104 6.81968 -1.18113 6.72651
172 1 -1.1104 3.90748 -3.80271 6.55408
174 1 -1.1104 3.97448 -1.01345 6.49851
9066 2 2.2208 -0.105208 11.3613 5.38731
9055 2 2.2208 -0.225315 2.98827 7.87106
17357 2 2.2208 -0.158692 -5.44501 10.8375
8173 2 2.2208 8.00602 -5.34896 8.04765
8208 2 2.2208 5.26007 -5.41751 10.9283
8389 2 2.2208 5.08862 -5.3737 5.14649
11 1 -1.1104 6.85737 -1.16336 1.04035
15 1 -1.1104 6.99491 -1.05894 3.83805
8 1 -1.1104 6.84621 -3.95936 3.90542
4 1 -1.1104 6.82586 -3.85636 1.06188
31 2 2.2208 11.0327 0.0998529 4.90181
32 1 -1.1104 12.3422 -4.13715 0.911439
34 1 -1.1104 12.5515 -3.94566 3.72574
36 1 -1.1104 12.3955 -1.09152 1.08182
37 2 2.2208 10.7779 -2.54054 2.43879
39 1 -1.1104 12.3705 -1.33741 3.85032
40 1 -1.1104 9.45121 -3.85468 0.92476
42 2 2.2208 8.27696 0.302639 2.27274
43 1 -1.1104 9.67342 -4.33987 3.56099
45 2 2.2208 8.20137 -2.54248 5.2188
47 1 -1.1104 9.54478 -1.0914 0.911772
48 1 -1.1104 9.62307 -1.06477 3.79299
210 1 -1.1104 9.66903 -1.22806 6.59384
9053 2 2.2208 -0.16152 19.8238 2.26417
344 2 2.2208 8.25828 14.4251 -0.467339
8330 2 2.2208 11.0068 -5.39043 5.27717
9052 2 2.2208 -0.174586 0.241099 10.8072
3 1 -1.1104 1.08481 2.06085 0.91786
7 1 -1.1104 1.16791 1.54298 3.72297
13 2 2.2208 5.40048 3.02434 2.34641
17 1 -1.1104 3.9855 1.54525 0.738023
20 1 -1.1104 4.00061 1.76131 3.74547
22 2 2.2208 2.60442 3.15217 5.21322
54 2 2.2208 5.50307 5.7675 5.21485
56 1 -1.1104 1.11811 7.42247 1.11469
58 1 -1.1104 1.27206 7.28417 3.85658
60 1 -1.1104 0.947938 4.58035 1.09601
67 1 -1.1104 1.1281 4.49308 3.95275
71 1 -1.1104 3.97528 7.15874 1.01518
72 2 2.2208 2.57891 5.84495 2.39539
76 1 -1.1104 3.76197 4.27564 1.07212
79 1 -1.1104 4.06478 4.39914 3.54174
5 1 -1.1104 7.02032 1.53068 0.896533
69 1 -1.1104 6.8727 4.37532 3.76616
63 1 -1.1104 6.92012 4.46067 1.07342
57 1 -1.1104 6.83782 7.1919 0.957581
74 1 -1.1104 4.2752 7.32353 3.72648
169 1 -1.1104 6.70556 1.69686 6.4707
173 1 -1.1104 4.01084 1.83671 6.58224
238 1 -1.1104 3.89981 7.39315 6.7587
167 1 -1.1104 1.26826 1.51394 6.55305
239 1 -1.1104 4.1629 4.58768 6.49273
234 1 -1.1104 1.0958 7.30838 6.68487
237 1 -1.1104 6.91433 4.56455 6.55252
9 1 -1.1104 6.91852 1.7246 3.65291
33 1 -1.1104 12.5825 1.44701 0.977363
35 1 -1.1104 12.494 1.50132 3.67038
38 2 2.2208 11.1091 3.07923 2.30961
41 1 -1.1104 10.0072 1.67017 0.634627
44 1 -1.1104 9.7241 1.7093 3.45632
46 2 2.2208 8.53195 2.97354 5.08172
84 2 2.2208 11.1769 5.99928 5.22328
86 1 -1.1104 12.4266 7.18546 1.11498
87 1 -1.1104 12.5685 7.52931 4.05472
88 1 -1.1104 12.4614 4.44468 0.928704
92 1 -1.1104 12.3787 4.52254 3.80127
94 1 -1.1104 9.7416 7.21168 1.04079
95 2 2.2208 8.21069 5.87646 2.44333
97 1 -1.1104 9.74786 7.5972 3.83795
99 1 -1.1104 9.63115 4.45694 1.2315
102 1 -1.1104 9.65491 4.52722 3.94103
235 1 -1.1104 6.52576 7.36465 6.44819
209 1 -1.1104 9.54874 1.4978 6.68828
267 1 -1.1104 9.51568 7.08018 6.45834
269 1 -1.1104 9.92706 4.27897 6.61911
266 1 -1.1104 12.557 4.22557 6.62464
59 1 -1.1104 6.92765 7.27253 3.71248
55 2 2.2208 5.38657 11.3833 5.08196
61 1 -1.1104 1.35795 10.2487 1.12336
66 2 2.2208 5.55314 8.62476 2.25366
68 1 -1.1104 1.00105 10.0581 3.89371
73 2 2.2208 2.63755 11.7376 2.53913
75 2 2.2208 2.80672 8.67104 5.03511
77 1 -1.1104 3.89195 10.0865 0.947035
80 1 -1.1104 3.81389 10.1191 3.58644
107 1 -1.1104 1.23953 12.914 1.01157
113 1 -1.1104 1.10299 12.9967 4.0092
123 1 -1.1104 4.02982 12.9496 1.05514
128 1 -1.1104 4.0709 13.0709 3.83517
115 1 -1.1104 6.78434 13.0174 3.84401
110 1 -1.1104 6.96337 12.8274 1.07401
64 1 -1.1104 6.58251 9.94122 0.718766
124 1 -1.1104 3.98425 12.8502 6.61854
111 1 -1.1104 6.68137 12.827 6.64157
201 2 2.2208 -0.203395 8.68268 2.46821
8390 2 2.2208 2.64356 -5.58566 2.30884
108 1 -1.1104 0.899206 13.0775 6.68665
70 1 -1.1104 6.73841 10.1116 3.54569
85 2 2.2208 11.0115 11.4793 5.18745
89 1 -1.1104 12.4432 10.2078 0.941008
91 2 2.2208 11.0966 8.62838 2.32312
93 1 -1.1104 12.423 10.2434 3.74084
96 2 2.2208 8.27721 11.5751 2.4099
98 2 2.2208 8.09766 8.63237 5.12505
100 1 -1.1104 9.66055 10.0647 0.997177
103 1 -1.1104 9.52148 10.1975 3.7567
142 1 -1.1104 12.3918 13.1671 0.720959
146 1 -1.1104 12.4144 12.8766 3.71438
153 1 -1.1104 9.73496 12.7932 0.833879
158 1 -1.1104 9.54843 12.9938 3.69138
101 1 -1.1104 9.69381 10.0049 6.52186
90 1 -1.1104 12.2885 9.93331 6.60247
143 1 -1.1104 12.5637 13.046 6.7387
65 1 -1.1104 6.85623 10.0956 6.55045
154 1 -1.1104 9.5921 12.7982 6.60965
130 2 2.2208 2.55419 14.3687 5.2908
119 2 2.2208 5.29855 14.3861 2.45337
106 2 2.2208 5.32235 17.1145 5.26864
109 1 -1.1104 1.16887 18.3958 0.84654
114 1 -1.1104 1.3268 18.4184 3.74703
116 1 -1.1104 1.37648 15.6681 0.900014
120 2 2.2208 5.48509 19.8918 2.18743
121 1 -1.1104 1.21477 15.5789 3.75495
125 1 -1.1104 3.91561 18.6743 0.995939
127 2 2.2208 2.57058 17.0781 2.26019
129 1 -1.1104 4.02035 18.5391 3.65955
131 2 2.2208 2.42814 19.7588 5.08563
132 1 -1.1104 4.05343 15.9438 1.019
134 1 -1.1104 3.74571 15.6653 3.86203
140 1 -1.1104 6.72922 15.5938 0.970489
122 1 -1.1104 6.66046 15.6984 3.76811
126 1 -1.1104 4.03623 18.3067 6.6711
112 1 -1.1104 6.87159 18.3273 6.36329
133 1 -1.1104 3.96841 15.57 6.67582
510 2 2.2208 10.8059 19.9589 13.5898
28 1 -1.1104 0.990333 18.5405 6.52922
8172 2 2.2208 10.981 -5.34257 10.8502
139 1 -1.1104 6.83774 18.4837 3.59381
138 1 -1.1104 7.04982 18.3328 0.703789
160 2 2.2208 8.08454 14.3135 5.25584
150 2 2.2208 11.0087 14.3251 2.27883
141 2 2.2208 11.1007 16.9925 4.97057
144 1 -1.1104 12.3914 18.595 0.88291
147 1 -1.1104 12.5071 18.3583 3.61037
148 1 -1.1104 12.4244 15.9272 0.750074
151 2 2.2208 11.0504 19.8723 2.33135
152 1 -1.1104 12.4799 15.5707 3.66091
155 1 -1.1104 9.67444 18.4905 0.709699
157 2 2.2208 8.27718 17.1381 2.35056
159 1 -1.1104 9.68475 18.543 3.76484
161 2 2.2208 8.10894 20.0302 5.31222
162 1 -1.1104 9.74435 15.7843 0.760798
164 1 -1.1104 9.67053 15.744 3.57836
149 1 -1.1104 12.4422 15.6452 6.41453
156 1 -1.1104 9.54177 18.5347 6.37636
163 1 -1.1104 9.43045 15.7144 6.40924
303 2 2.2208 -0.285769 14.5076 8.21273
166 1 -1.1104 0.98159 -4.04595 6.32978
170 1 -1.1104 1.13854 -1.1718 6.54719
605 2 2.2208 5.38542 11.3358 -0.295612
175 2 2.2208 5.37115 0.28709 10.8783
176 1 -1.1104 1.25891 -4.02981 12.1994
180 1 -1.1104 1.23271 -3.72661 9.26003
184 1 -1.1104 1.21018 -1.18248 12.3686
186 2 2.2208 5.35048 -2.65111 8.07887
188 1 -1.1104 1.15292 -1.20225 9.58643
190 1 -1.1104 3.91384 -3.83274 12.3766
192 2 2.2208 2.48528 0.292803 8.03282
193 1 -1.1104 3.86791 -4.13988 9.68303
195 2 2.2208 2.61202 -2.49724 10.9605
197 1 -1.1104 3.97518 -1.1313 12.161
198 1 -1.1104 4.20752 -1.19609 9.50292
178 1 -1.1104 6.75072 -3.80513 12.1587
8464 2 2.2208 8.20117 -5.30771 13.6855
17362 2 2.2208 -0.299249 -5.41456 5.2566
8264 2 2.2208 2.47674 -5.50945 8.2282
168 1 -1.1104 6.95388 -3.98787 6.64047
207 1 -1.1104 12.5701 -1.38988 6.71121
568 2 2.2208 11.1532 0.141468 -0.536572
208 1 -1.1104 9.76652 -4.04561 6.57395
540 2 2.2208 2.44421 3.1265 -0.480509
8334 2 2.2208 8.18323 -5.34843 2.29209
447 2 2.2208 8.15363 6.04044 13.6405
182 1 -1.1104 6.65041 -4.10938 9.35831
205 1 -1.1104 12.4435 -4.11919 6.48735
185 1 -1.1104 6.85546 -1.17316 12.3715
189 1 -1.1104 6.98614 -1.19183 9.54491
211 2 2.2208 11.1431 0.293339 10.9465
212 1 -1.1104 12.2924 -3.9465 12.2307
214 1 -1.1104 12.3061 -3.9669 9.53023
216 1 -1.1104 12.6287 -1.21112 12.5207
217 2 2.2208 11.0947 -2.53069 8.1451
219 1 -1.1104 12.5796 -1.01665 9.54138
220 1 -1.1104 9.35119 -3.82326 12.4786
222 2 2.2208 8.23895 0.183903 8.01743
223 1 -1.1104 9.74329 -4.05188 9.41129
225 2 2.2208 8.14834 -2.7353 10.8065
227 1 -1.1104 9.89395 -1.13769 12.2899
228 1 -1.1104 9.68875 -1.25491 9.45629
9059 2 2.2208 -0.0724094 0.242579 5.04864
385 2 2.2208 10.8915 -2.56955 13.7234
236 1 -1.1104 1.19568 4.60436 6.64997
177 1 -1.1104 1.11236 1.56011 12.4158
181 1 -1.1104 1.10461 1.68561 9.44255
187 2 2.2208 5.37833 3.15146 7.94062
191 1 -1.1104 3.9095 1.7385 12.2674
194 1 -1.1104 3.94201 1.82621 9.29029
196 2 2.2208 2.52886 2.98327 10.822
240 2 2.2208 5.31308 5.85795 10.9403
242 1 -1.1104 1.31159 7.24361 12.289
244 1 -1.1104 1.24758 7.15852 9.60611
246 1 -1.1104 1.20617 4.43132 12.4979
251 1 -1.1104 1.10028 4.27558 9.57191
255 1 -1.1104 3.99776 7.29369 12.2177
256 2 2.2208 2.70955 5.93263 8.05869
258 1 -1.1104 4.16262 7.19815 9.47567
260 1 -1.1104 3.87333 4.66318 12.3376
262 1 -1.1104 3.94496 4.55584 9.45013
248 1 -1.1104 6.58505 4.1847 12.15
245 1 -1.1104 7.01632 7.33862 9.2619
570 2 2.2208 8.21485 2.95227 -0.449713
265 1 -1.1104 12.543 6.99293 6.65644
206 1 -1.1104 12.474 1.38845 6.49925
422 2 2.2208 2.73063 11.3288 13.7574
179 1 -1.1104 6.7899 1.59136 12.2308
229 2 2.2208 8.01604 19.6548 10.8735
183 1 -1.1104 6.76494 1.6319 9.57784
243 1 -1.1104 6.751 7.17751 12.3014
253 1 -1.1104 6.8191 4.28428 9.20671
213 1 -1.1104 12.5656 1.57269 12.3571
215 1 -1.1104 12.5596 1.75542 9.48287
218 2 2.2208 11.3085 2.85988 7.94139
221 1 -1.1104 9.62899 1.63229 12.2253
224 1 -1.1104 9.59899 1.69652 9.51817
226 2 2.2208 8.17085 2.86155 10.9448
268 1 -1.1104 9.73908 4.23694 9.40904
271 1 -1.1104 9.51796 4.67646 12.1585
275 2 2.2208 8.33394 5.45015 7.95151
276 2 2.2208 10.9545 5.81225 10.7308
278 1 -1.1104 12.5441 7.13457 12.0191
280 1 -1.1104 12.3017 4.42413 12.3591
283 1 -1.1104 12.5967 4.45966 9.4724
285 1 -1.1104 9.85114 7.31955 12.0816
279 1 -1.1104 12.3354 7.08278 9.29469
273 1 -1.1104 9.52168 7.19777 9.346
78 1 -1.1104 4.01616 10.1596 6.79843
62 1 -1.1104 1.29717 10.0492 6.67352
241 2 2.2208 5.25134 11.4704 10.6885
247 1 -1.1104 1.3128 9.98501 12.4961
250 2 2.2208 5.4231 8.64911 8.10728
252 1 -1.1104 0.858475 9.99874 9.56651
257 2 2.2208 2.53862 11.4495 8.06478
259 2 2.2208 2.73919 8.58893 10.827
261 1 -1.1104 4.0517 10.0607 12.2144
263 1 -1.1104 3.65034 10.0129 9.35454
204 1 -1.1104 3.9707 12.7726 9.60281
287 1 -1.1104 4.01981 12.7233 12.3592
294 1 -1.1104 1.23326 12.8674 9.35204
299 1 -1.1104 1.14923 12.8251 12.0402
297 1 -1.1104 6.70382 13.1458 12.3506
249 1 -1.1104 6.92182 10.0954 12.1839
254 1 -1.1104 6.73139 10.0817 9.39655
310 2 2.2208 -0.341326 11.4019 10.9292
603 2 2.2208 5.39752 5.64819 -0.469661
199 2 2.2208 8.20079 14.1755 11.0564
27 1 -1.1104 12.2572 18.497 12.0854
9060 2 2.2208 -0.372343 3.14955 2.49865
290 1 -1.1104 6.63229 12.8319 9.37839
264 1 -1.1104 9.60225 10.2078 9.24888
270 1 -1.1104 9.83071 10.0972 12.0703
272 2 2.2208 8.35144 8.68252 10.7856
274 2 2.2208 8.183 11.4732 7.99821
277 2 2.2208 11.1115 11.4403 10.745
281 1 -1.1104 12.4367 10.2099 12.3412
282 2 2.2208 10.9379 8.51558 7.95002
284 1 -1.1104 12.5937 9.95923 9.42091
26 1 -1.1104 12.366 13.0995 12.4128
49 1 -1.1104 12.5871 12.7107 9.4846
104 1 -1.1104 9.69059 12.7299 12.4461
136 1 -1.1104 9.50864 12.8758 9.58035
137 1 -1.1104 9.61622 18.4405 9.13255
9068 2 2.2208 -0.178507 19.8925 7.95968
117 1 -1.1104 1.35287 15.865 6.55152
118 1 -1.1104 6.71301 15.6793 6.50489
82 2 2.2208 11.0903 19.8882 7.85014
50 1 -1.1104 12.4093 18.4081 9.22207
30 2 2.2208 2.59741 14.1767 10.8485
295 2 2.2208 5.38619 14.1926 8.06538
51 2 2.2208 2.53833 19.921 11.0045
52 1 -1.1104 4.16679 15.5292 12.0881
202 1 -1.1104 1.3546 15.5191 12.452
230 1 -1.1104 4.02939 18.6051 9.73988
231 1 -1.1104 3.96197 15.639 9.36987
232 2 2.2208 2.57832 17.0407 8.1099
286 1 -1.1104 4.13587 18.3504 12.5332
291 1 -1.1104 1.10738 18.4398 9.67218
292 1 -1.1104 1.41546 15.7819 9.61444
293 2 2.2208 5.26875 19.8298 8.11529
298 1 -1.1104 1.2283 18.4854 12.5031
300 2 2.2208 5.43258 16.8964 10.8886
288 1 -1.1104 6.57432 18.339 9.47845
289 1 -1.1104 6.93253 15.769 9.15042
9056 2 2.2208 -0.187026 -2.45628 2.32195
9054 2 2.2208 -0.350159 17.0461 5.18828
105 1 -1.1104 9.40146 18.2691 12.0017
29 1 -1.1104 9.69351 15.4875 9.4089
83 1 -1.1104 12.3881 15.5408 9.51476
53 1 -1.1104 12.6042 15.8607 12.2671
25 2 2.2208 10.9345 16.8593 10.7823
81 2 2.2208 10.9286 14.4098 7.75984
9051 2 2.2208 -0.161441 -2.54638 7.92416
296 1 -1.1104 7.05058 18.6945 12.5203
203 1 -1.1104 6.95245 15.81 12.3135
135 2 2.2208 8.28238 17.138 7.78371
145 1 -1.1104 12.1677 18.698 6.33704
233 1 -1.1104 9.60971 15.4992 12.471
200 2 2.2208 -0.313189 14.1913 2.47325
304 2 2.2208 -0.402654 17.2509 11.1183
683 2 2.2208 -0.261908 11.539 -0.378033
544 2 2.2208 2.63861 14.3262 -0.401729
421 2 2.2208 5.38462 8.69902 13.6233
484 2 2.2208 5.27663 20.0765 13.7615
9064 2 2.2208 -0.180315 5.93222 5.21154
9050 2 2.2208 -0.293231 8.63514 8.22508
9049 2 2.2208 -0.197076 5.75014 10.8157
9100 2 2.2208 -0.204924 16.9505 -0.477088
17729 2 2.2208 -0.231629 -5.44279 -0.396825
350 2 2.2208 -0.228349 8.74255 13.5893
8463 2 2.2208 5.51415 -5.50185 -0.230259
448 2 2.2208 11.1428 8.67433 13.6615
604 2 2.2208 2.52265 8.66626 -0.372734
539 2 2.2208 2.69427 -2.65809 -0.479761
569 2 2.2208 8.27577 -2.31038 -0.489677
311 2 2.2208 5.37173 0.148297 16.6563
312 1 -1.1104 0.925204 -4.13261 18.0741
316 1 -1.1104 1.18874 -4.10457 15.1751
324 1 -1.1104 1.12797 -1.23656 17.9331
326 2 2.2208 5.23631 -2.65724 19.4255
328 1 -1.1104 1.07587 -0.973488 15.234
332 1 -1.1104 3.81877 -4.01235 18.0488
334 2 2.2208 2.49325 0.186728 19.3488
335 1 -1.1104 3.91222 -4.15532 15.1916
339 2 2.2208 2.30403 -2.64606 16.466
341 1 -1.1104 3.8762 -1.13694 17.8295
342 1 -1.1104 3.87555 -1.30585 14.9437
336 1 -1.1104 3.9484 -4.22393 20.8682
343 1 -1.1104 3.96958 -1.20075 20.7554
317 1 -1.1104 1.13261 -4.10799 20.7765
325 1 -1.1104 6.71376 -0.974526 18.1296
331 1 -1.1104 6.76021 -1.44649 20.8739
329 1 -1.1104 1.19134 -1.38707 20.5589
686 2 2.2208 -0.287375 5.81662 22.1977
17727 2 2.2208 -0.322201 -5.32879 16.5561
9411 2 2.2208 -0.277508 -2.7158 25.0338
654 2 2.2208 -0.24608 11.5881 16.585
330 1 -1.1104 6.58232 -1.13934 15.2375
320 1 -1.1104 6.91515 -3.77711 15.01
314 1 -1.1104 6.85872 -4.10194 17.9659
354 2 2.2208 10.9984 0.325297 16.6554
355 1 -1.1104 12.5406 -4.014 17.9838
357 1 -1.1104 12.4437 -4.09958 14.9757
361 1 -1.1104 12.2935 -1.18641 18.1016
362 2 2.2208 11.0083 -2.6165 19.5696
364 1 -1.1104 12.3159 -1.17674 15.2543
366 1 -1.1104 9.51275 -4.0215 17.9356
368 2 2.2208 8.25846 0.489979 19.4853
369 1 -1.1104 9.80443 -3.87258 15.1584
373 2 2.2208 8.22498 -2.50651 16.5601
375 1 -1.1104 9.54394 -1.03903 17.7641
376 1 -1.1104 9.46336 -1.09675 15.0532
370 1 -1.1104 9.66899 -3.90762 21.0029
8534 2 2.2208 2.38815 -5.4862 19.42
358 1 -1.1104 12.4288 -3.89217 20.8888
377 1 -1.1104 9.5101 -1.01347 20.6851
8535 2 2.2208 5.5594 -5.36367 16.634
675 2 2.2208 -0.20103 17.0884 16.6226
348 2 2.2208 -0.222393 19.9711 13.9834
313 1 -1.1104 1.13048 1.74336 17.9368
318 1 -1.1104 1.21369 1.90165 15.21
327 2 2.2208 5.16954 3.24039 19.2967
333 1 -1.1104 3.98682 1.66622 17.9954
337 1 -1.1104 3.95404 1.55734 15.1935
340 2 2.2208 2.71829 3.26702 16.4882
387 2 2.2208 5.55247 6.04351 16.5117
389 1 -1.1104 1.33801 7.34272 17.8084
391 1 -1.1104 1.22953 7.46321 15.0882
395 1 -1.1104 1.2505 4.65065 17.8882
400 1 -1.1104 1.21962 4.59996 14.8987
408 1 -1.1104 4.02287 7.3948 17.9707
409 2 2.2208 2.61323 6.01299 19.2471
411 1 -1.1104 4.09489 7.50162 14.9173
414 1 -1.1104 3.93057 4.66495 17.8907
416 1 -1.1104 3.93559 4.58398 15.174
404 1 -1.1104 6.62078 4.45247 15.1033
397 1 -1.1104 6.80528 4.57359 17.7973
393 1 -1.1104 6.88518 7.3968 15.2905
338 1 -1.1104 3.94924 1.41697 20.6263
392 1 -1.1104 1.13435 7.2255 20.864
315 1 -1.1104 6.87608 1.84285 18.0239
322 1 -1.1104 6.51538 1.64696 15.1705
8460 2 2.2208 8.07394 -5.50201 25.0537
349 2 2.2208 -0.455515 -0.0250543 22.2842
356 1 -1.1104 12.2641 1.74732 18.0748
359 1 -1.1104 12.4983 1.55798 15.3307
363 2 2.2208 10.9704 3.18008 19.323
367 1 -1.1104 9.51252 1.92769 18.0351
371 1 -1.1104 9.42914 1.87514 15.2057
374 2 2.2208 8.15614 3.18372 16.5886
423 2 2.2208 11.3131 6.15011 16.4857
425 1 -1.1104 12.6193 7.34614 17.9775
428 1 -1.1104 12.6784 4.65526 17.7277
431 1 -1.1104 12.6096 4.61912 15.0256
435 1 -1.1104 9.70594 7.18618 17.8731
436 2 2.2208 8.44189 5.78452 19.3181
441 1 -1.1104 9.83688 4.5404 17.7767
443 1 -1.1104 9.62736 4.77244 15.2268
438 1 -1.1104 9.67594 7.4373 15.0149
432 1 -1.1104 12.5169 4.47213 20.5825
439 1 -1.1104 9.47537 7.35168 20.6299
426 1 -1.1104 12.6509 7.27628 14.9823
353 2 2.2208 5.15736 3.15211 13.6829
390 1 -1.1104 7.00645 7.44122 17.9751
388 2 2.2208 5.43871 11.4141 16.4904
396 1 -1.1104 0.993925 10.1823 17.7072
399 2 2.2208 5.3834 8.47545 19.3014
402 1 -1.1104 1.35537 10.1628 15.2395
410 2 2.2208 2.68451 11.4081 19.3702
413 2 2.2208 2.51789 8.7641 16.4162
415 1 -1.1104 3.92703 10.1709 17.8704
418 1 -1.1104 4.22232 10.1715 15.0927
451 1 -1.1104 1.07801 12.9729 17.8309
455 1 -1.1104 1.25842 12.8558 15.0824
471 1 -1.1104 4.00206 12.9967 18.0463
474 1 -1.1104 3.96309 12.6714 15.2864
406 1 -1.1104 6.76804 10.1771 15.0231
398 1 -1.1104 6.99283 10.1895 17.8257
460 1 -1.1104 6.63212 12.7826 20.946
403 1 -1.1104 1.22772 10.0176 20.6533
9093 2 2.2208 13.5588 -2.73073 16.4523
453 1 -1.1104 6.88785 13.2693 18.0077
459 1 -1.1104 6.73869 12.8919 15.2874
407 1 -1.1104 6.68388 10.0321 20.6185
424 2 2.2208 11.2368 11.3069 16.6584
429 1 -1.1104 12.5702 10.0552 18.1471
430 2 2.2208 11.1235 8.57604 19.2943
433 1 -1.1104 12.616 10.0041 15.2041
437 2 2.2208 8.25507 11.3149 19.4377
440 2 2.2208 8.39955 8.68202 16.4503
442 1 -1.1104 9.91112 9.96876 17.7441
445 1 -1.1104 9.78171 10.0944 14.9376
487 1 -1.1104 12.6648 12.6956 18.0078
489 1 -1.1104 12.5392 12.8942 15.2539
498 1 -1.1104 9.96017 12.5481 18.3297
501 1 -1.1104 9.41448 13.0138 15.215
490 1 -1.1104 12.3018 12.8196 20.8947
446 1 -1.1104 9.776 10.1712 20.7201
502 1 -1.1104 9.5799 13.1306 20.9211
660 2 2.2208 -0.173183 14.3473 24.9282
386 2 2.2208 10.9889 3.05327 13.8263
652 2 2.2208 -0.264036 3.07989 19.3255
478 2 2.2208 2.60886 14.2206 16.6403
450 2 2.2208 5.29249 17.3511 16.4822
452 1 -1.1104 1.06172 18.4201 17.9706
457 1 -1.1104 1.22357 18.5821 15.2708
463 1 -1.1104 1.30041 15.6768 18.149
465 2 2.2208 5.52833 14.3239 19.443
466 2 2.2208 5.27871 19.9649 19.4726
467 1 -1.1104 1.09549 15.6778 15.3139
472 1 -1.1104 3.81153 18.5502 17.9981
473 2 2.2208 2.49078 17.129 19.4695
476 1 -1.1104 4.06016 18.6809 15.1547
479 2 2.2208 2.4269 19.9735 16.6817
480 1 -1.1104 3.94141 15.9557 18.1926
481 1 -1.1104 3.82089 15.4996 15.032
469 1 -1.1104 6.61493 15.8948 15.3323
462 1 -1.1104 6.5999 18.5697 20.9519
676 2 2.2208 -0.239269 14.2522 13.7342
8493 2 2.2208 11.1432 -5.31525 16.4017
8479 2 2.2208 8.0256 -5.52669 19.3158
655 2 2.2208 -0.333487 6.05108 16.3887
458 1 -1.1104 1.11147 18.4981 20.8864
468 1 -1.1104 1.1448 15.4595 20.9307
464 1 -1.1104 6.84684 15.8042 18.148
461 1 -1.1104 6.64117 18.685 15.2193
454 1 -1.1104 6.81719 18.726 18.1195
505 2 2.2208 8.1322 14.3376 16.5839
494 2 2.2208 10.993 14.1872 19.5039
486 2 2.2208 11.0121 16.9514 16.5291
488 1 -1.1104 12.2681 18.5162 17.8846
491 1 -1.1104 12.5435 18.7966 14.9395
493 1 -1.1104 12.3648 15.7822 17.9738
495 2 2.2208 11.0203 19.9326 19.2473
496 1 -1.1104 12.0829 15.5133 15.1643
499 1 -1.1104 9.53143 18.645 17.7112
500 2 2.2208 8.21113 17.2097 19.4307
503 1 -1.1104 9.666 18.4916 15.1095
506 2 2.2208 8.0938 20.0448 16.3581
507 1 -1.1104 9.64515 15.7517 18.1117
508 1 -1.1104 9.40118 15.6743 15.2555
497 1 -1.1104 12.4745 15.7549 20.6425
470 1 -1.1104 6.98439 15.8154 20.927
669 2 2.2208 -0.288853 2.98192 25.2682
321 1 -1.1104 6.58832 -3.96742 20.7358
514 2 2.2208 5.24103 0.294258 22.2016
515 1 -1.1104 1.12725 -4.06914 23.5923
519 1 -1.1104 1.50512 -3.99411 26.4351
523 1 -1.1104 1.08552 -1.23146 23.7092
525 2 2.2208 5.33939 -2.68278 24.8636
527 1 -1.1104 0.921017 -1.25067 26.4852
529 1 -1.1104 4.12643 -4.16018 23.7071
531 2 2.2208 2.40443 0.300872 24.9257
532 1 -1.1104 4.3138 -4.18989 26.3653
534 2 2.2208 2.60536 -2.92705 22.1189
536 1 -1.1104 3.84237 -1.12475 23.5457
537 1 -1.1104 3.91501 -1.51954 26.3501
521 1 -1.1104 6.88138 -4.29505 26.6544
528 1 -1.1104 6.71874 -1.28397 26.5656
524 1 -1.1104 6.63012 -1.10095 23.6109
517 1 -1.1104 6.99494 -3.94466 23.5224
680 2 2.2208 -0.184986 11.3112 22.128
648 2 2.2208 -0.188252 19.9034 24.9788
420 2 2.2208 2.52526 5.8684 13.751
8531 2 2.2208 2.3853 -5.35477 13.7218
650 2 2.2208 -0.095511 17.0596 22.2559
365 1 -1.1104 12.4718 -1.13542 20.6233
682 2 2.2208 -0.259564 8.7732 24.9984
668 2 2.2208 -0.231983 8.61644 19.4265
550 2 2.2208 11.0138 0.359058 22.112
551 1 -1.1104 12.4242 -3.92202 23.6348
553 1 -1.1104 12.2936 -3.76537 26.3348
555 1 -1.1104 12.1985 -1.20601 23.4656
556 2 2.2208 11.0088 -2.59688 24.8369
558 1 -1.1104 12.3094 -1.2546 26.101
559 1 -1.1104 9.61331 -3.87045 23.5514
561 2 2.2208 8.0089 0.27664 25.0367
562 1 -1.1104 9.51812 -4.00431 26.3124
564 2 2.2208 8.22896 -2.57677 22.2008
566 1 -1.1104 9.73595 -0.93383 23.6183
567 1 -1.1104 9.3651 -1.29585 26.3065
513 2 2.2208 8.33967 19.9576 27.7478
511 2 2.2208 11.0362 14.1267 13.6586
673 2 2.2208 -0.346849 19.889 19.3446
319 1 -1.1104 0.985244 1.58463 20.7874
417 1 -1.1104 3.8006 4.57276 20.7397
323 1 -1.1104 6.79709 1.58678 20.9877
405 1 -1.1104 6.62897 4.39283 20.5643
401 1 -1.1104 0.990129 4.5625 20.6793
412 1 -1.1104 3.7847 7.42884 20.7561
516 1 -1.1104 1.08827 1.38413 23.5169
520 1 -1.1104 1.20819 1.64714 26.3478
526 2 2.2208 5.14201 2.91402 25.0547
530 1 -1.1104 3.75963 1.72453 23.4437
533 1 -1.1104 4.04651 1.53713 26.2827
535 2 2.2208 2.28993 3.20625 22.1704
579 2 2.2208 5.28035 5.79989 22.1647
581 1 -1.1104 1.11915 7.20286 23.7481
585 1 -1.1104 0.971809 4.33775 23.8761
590 1 -1.1104 1.15562 4.30934 26.6602
595 2 2.2208 2.42156 5.80757 25.1094
597 1 -1.1104 3.88999 7.01958 26.5896
599 1 -1.1104 3.8429 4.56173 23.5798
601 1 -1.1104 3.97582 4.36847 26.4658
594 1 -1.1104 3.87675 7.432 23.6442
587 1 -1.1104 6.67389 4.35326 23.5896
592 1 -1.1104 6.69244 4.45065 26.3285
522 1 -1.1104 6.64713 1.54352 26.5265
518 1 -1.1104 6.71837 1.74626 23.5429
584 1 -1.1104 6.74452 7.27119 26.4506
582 1 -1.1104 6.54645 7.2816 23.6192
583 1 -1.1104 1.06525 7.23925 26.4789
543 1 -1.1104 9.65931 15.8188 26.3628
571 2 2.2208 10.9848 14.3468 25.0164
512 2 2.2208 8.22927 17.1845 13.8296
427 1 -1.1104 12.578 7.06734 21.027
444 1 -1.1104 9.77705 4.39701 20.7691
360 1 -1.1104 12.3386 1.82127 20.9007
372 1 -1.1104 9.69676 1.60778 20.8083
630 2 2.2208 11.1628 11.5671 27.7556
394 1 -1.1104 6.85574 7.31529 20.5463
552 1 -1.1104 12.2769 1.68443 23.7123
554 1 -1.1104 12.26 1.70914 26.3909
557 2 2.2208 10.8542 3.13599 24.981
560 1 -1.1104 9.47238 1.80454 23.5339
563 1 -1.1104 9.41696 1.75139 26.2899
565 2 2.2208 7.96802 3.05428 22.0896
611 1 -1.1104 9.67539 4.40421 26.6856
613 1 -1.1104 9.38176 4.36125 23.4421
617 2 2.2208 8.11301 5.7323 25.0748
618 2 2.2208 10.9574 5.75579 22.2117
621 1 -1.1104 12.418 7.37617 26.6838
622 1 -1.1104 12.2153 4.40452 23.4431
625 1 -1.1104 12.3015 4.44079 26.3617
627 1 -1.1104 9.47209 7.15295 23.6258
615 1 -1.1104 9.57389 7.31156 26.4411
620 1 -1.1104 12.5889 7.21801 23.8434
384 2 2.2208 8.06912 0.349109 13.628
8527 2 2.2208 10.9412 -5.30852 22.2906
475 1 -1.1104 3.80167 12.7885 20.7738
419 1 -1.1104 4.03966 9.88355 20.6546
485 2 2.2208 5.5694 14.4469 13.7292
456 1 -1.1104 1.1494 12.6306 20.56
636 1 -1.1104 3.79706 12.8857 23.8225
640 1 -1.1104 0.937255 12.6413 26.2579
580 2 2.2208 5.30054 11.3422 22.1357
586 1 -1.1104 1.12475 9.96469 23.5653
589 2 2.2208 5.2862 8.80432 25.1473
591 1 -1.1104 1.18001 10.0243 26.4747
596 2 2.2208 2.53496 11.4958 25.1071
598 2 2.2208 2.66481 8.59325 22.2464
600 1 -1.1104 4.13132 10.0743 23.6688
602 1 -1.1104 3.73812 9.97748 26.4686
646 1 -1.1104 1.25456 12.7925 23.3492
379 1 -1.1104 3.67037 12.7746 26.6957
588 1 -1.1104 6.74564 10.0719 23.4286
593 1 -1.1104 6.76916 9.91147 26.3164
635 1 -1.1104 6.76158 12.6899 26.5601
572 2 2.2208 2.3888 20.0224 27.9026
631 2 2.2208 8.23903 14.3895 22.2501
449 2 2.2208 8.19244 11.4712 13.6701
434 1 -1.1104 12.4876 9.85476 20.7906
644 1 -1.1104 6.85632 12.9392 23.6667
608 1 -1.1104 9.57414 13.0007 26.4461
577 1 -1.1104 9.50436 12.9919 23.7408
547 1 -1.1104 12.3804 13.0114 26.1827
542 1 -1.1104 12.7215 13.0673 23.4416
610 1 -1.1104 9.50504 10.1447 26.4201
612 1 -1.1104 9.55957 9.90532 23.7911
614 2 2.2208 8.03005 8.73983 22.2553
616 2 2.2208 8.03962 11.4599 24.9881
619 2 2.2208 11.1078 11.528 22.3457
623 1 -1.1104 12.524 10.0814 23.5163
624 2 2.2208 11.1302 8.60262 25.1388
626 1 -1.1104 12.5179 9.9187 26.4651
633 1 -1.1104 9.50081 15.6081 23.689
674 2 2.2208 -0.174704 14.2171 19.3147
9404 2 2.2208 -0.27842 -2.65925 19.3671
653 2 2.2208 -0.278763 0.473911 16.6281
609 1 -1.1104 9.56601 18.5127 26.195
541 2 2.2208 11.1637 17.2328 22.2519
477 1 -1.1104 3.98618 18.2436 20.8744
482 1 -1.1104 4.01263 15.7045 20.9319
637 1 -1.1104 6.87976 15.6533 26.2986
641 1 -1.1104 6.94647 18.8424 23.5651
643 2 2.2208 5.3786 14.1688 24.9424
573 2 2.2208 2.59164 14.272 22.1977
347 1 -1.1104 6.65917 15.8405 23.4412
383 1 -1.1104 3.7069 18.5265 26.5034
642 2 2.2208 5.40107 19.9299 24.9997
382 2 2.2208 2.526 17.2082 24.8844
639 1 -1.1104 1.17662 15.6252 26.4841
647 2 2.2208 5.47837 16.9482 22.0651
381 1 -1.1104 4.11457 15.4676 26.4321
634 1 -1.1104 4.05463 18.6768 23.7886
638 1 -1.1104 1.04162 18.441 26.3621
574 2 2.2208 2.79453 19.9052 22.1894
645 1 -1.1104 1.28261 18.5326 23.4489
345 1 -1.1104 3.81734 15.6456 23.7805
346 1 -1.1104 1.07713 15.7709 23.5678
607 1 -1.1104 6.67071 18.4012 26.3496
575 2 2.2208 11.0441 20.0417 24.9754
352 2 2.2208 2.63923 0.257079 13.8208
548 1 -1.1104 12.4375 18.6485 26.3118
576 1 -1.1104 12.3755 15.7218 26.3285
504 1 -1.1104 9.69593 18.6059 20.5406
578 1 -1.1104 9.68783 18.548 23.5177
606 2 2.2208 8.32921 17.2038 24.8981
546 1 -1.1104 12.4264 18.602 23.8178
492 1 -1.1104 12.4601 18.5576 20.7618
632 2 2.2208 8.27813 20.0385 22.2282
549 1 -1.1104 12.5179 15.9032 23.5351
509 1 -1.1104 9.7406 15.8774 21.0382
9412 2 2.2208 -0.284818 3.16864 13.7486
679 2 2.2208 -0.178726 6.01785 27.9139
545 2 2.2208 5.46039 17.0292 27.8033
628 2 2.2208 10.956 5.8434 27.7802
9410 2 2.2208 -0.252693 0.156205 27.7674
9409 2 2.2208 -0.15366 -2.47587 13.7758
483 2 2.2208 2.38175 17.0462 13.8233
8704 2 2.2208 10.9446 -5.2646 27.7048
378 2 2.2208 10.7743 17.1637 27.7263
538 2 2.2208 5.33872 0.0806871 27.7756
351 2 2.2208 5.40357 -2.74162 13.7164
629 2 2.2208 8.20647 8.78595 27.703
687 2 2.2208 5.30809 22.4705 4.9837
689 1 -1.1104 1.24906 24.1489 0.663048
690 1 -1.1104 1.22664 24.3226 3.5694
691 1 -1.1104 1.17002 21.2521 0.91189
693 2 2.2208 5.32055 25.5115 2.50232
694 1 -1.1104 1.31933 21.141 3.85002
696 1 -1.1104 4.08396 24.1995 0.979984
697 2 2.2208 2.52194 22.6226 2.26567
699 1 -1.1104 4.16342 23.9175 3.67512
700 2 2.2208 2.51068 25.3821 5.08206
701 1 -1.1104 3.93722 21.518 0.948239
703 1 -1.1104 4.10162 21.2516 3.65715
692 1 -1.1104 0.84315 26.8076 0.928266
695 1 -1.1104 1.22509 26.9317 3.61298
834 1 -1.1104 4.00522 23.9744 6.40282
836 1 -1.1104 3.77367 26.7805 6.7682
702 1 -1.1104 3.7517 26.7069 1.0685
828 1 -1.1104 1.24246 24.0192 6.33434
712 1 -1.1104 6.86998 21.4111 3.70214
704 1 -1.1104 3.98334 26.8018 4.04051
1325 2 2.2208 -0.295927 42.5386 13.4768
9709 2 2.2208 -0.0302119 22.6182 5.21149
9731 2 2.2208 13.6716 22.7784 7.98441
974 1 -1.1104 9.4919 43.8691 12.2311
710 1 -1.1104 6.98461 21.2883 0.947823
709 1 -1.1104 6.9389 24.0787 3.61038
711 1 -1.1104 6.6727 27.1171 0.825814
713 1 -1.1104 6.73848 26.9705 3.84129
832 1 -1.1104 6.70006 21.1983 6.86274
708 1 -1.1104 6.89477 24.0617 0.790785
714 2 2.2208 10.9484 22.7102 4.98469
716 1 -1.1104 12.5802 24.3413 1.03297
717 1 -1.1104 12.3896 23.8945 3.85614
718 1 -1.1104 12.5428 21.6298 0.950097
720 2 2.2208 10.8806 25.6955 2.15143
721 1 -1.1104 12.3136 21.1539 3.76686
723 1 -1.1104 9.68313 24.4521 0.603889
724 2 2.2208 8.26562 22.8036 2.2354
726 1 -1.1104 9.69141 24.1951 3.49547
727 2 2.2208 8.30661 25.4912 5.131
728 1 -1.1104 9.6985 21.4062 0.717453
730 1 -1.1104 9.51588 21.443 3.61627
731 1 -1.1104 9.26491 26.9458 3.59463
719 1 -1.1104 12.1094 26.7614 3.62013
729 1 -1.1104 9.47575 27.3756 0.922873
864 1 -1.1104 9.6912 24.0811 6.30714
861 1 -1.1104 12.3802 24.1206 6.55832
1212 1 -1.1104 12.162 27.0213 0.963173
865 1 -1.1104 9.57014 21.4371 6.53183
862 1 -1.1104 12.4411 21.3558 6.51805
978 2 2.2208 8.21782 45.1594 7.93044
829 1 -1.1104 6.89346 24.1077 6.41003
866 1 -1.1104 9.63498 26.9244 6.47934
722 1 -1.1104 12.4461 26.952 6.49476
1141 2 2.2208 5.23487 42.5953 13.746
688 2 2.2208 5.32785 28.3362 5.25139
698 2 2.2208 2.55197 28.3438 2.30265
736 1 -1.1104 1.22981 29.5608 0.871772
739 1 -1.1104 0.983008 29.8065 3.84398
742 1 -1.1104 1.34867 32.5805 1.02931
743 2 2.2208 5.42297 31.0242 2.27418
745 1 -1.1104 1.07611 32.672 3.96078
747 1 -1.1104 3.85739 30.1649 0.742486
750 1 -1.1104 3.77721 29.5503 3.74119
752 2 2.2208 2.48122 31.1816 5.06099
754 1 -1.1104 4.15846 32.6967 1.01684
755 1 -1.1104 3.99316 32.5482 3.73348
9724 2 2.2208 -0.419096 36.7899 8.11268
887 1 -1.1104 3.682 29.9492 6.62354
889 1 -1.1104 4.07729 32.8511 6.45083
1193 2 2.2208 2.50871 25.719 -0.44945
9719 2 2.2208 13.6513 28.293 2.25925
833 1 -1.1104 6.74691 26.9342 6.60047
760 1 -1.1104 6.53979 29.6633 3.72471
886 1 -1.1104 6.7027 32.8266 6.25482
759 1 -1.1104 6.74315 29.6605 0.797435
746 1 -1.1104 6.99355 32.5229 3.66229
761 1 -1.1104 6.75215 32.4393 0.986272
715 2 2.2208 10.9605 28.378 4.98413
725 2 2.2208 7.9174 28.4915 2.51218
763 1 -1.1104 12.4393 29.712 0.765418
765 1 -1.1104 12.4102 29.9809 3.61406
767 1 -1.1104 12.4241 32.677 0.984828
768 2 2.2208 10.9599 31.294 2.42407
770 1 -1.1104 12.4001 32.7423 3.73247
771 1 -1.1104 9.61736 30.0274 0.994193
774 1 -1.1104 9.53804 29.7266 3.73869
776 2 2.2208 8.35374 31.1773 5.2713
778 1 -1.1104 9.71409 32.7821 0.735168
779 1 -1.1104 9.63899 32.6176 3.66094