ITEM: TIMESTEP
80000
ITEM: NUMBER OF ATOMS
17730
ITEM: BOX BOUNDS pp pp pp
-4.1368510966575744e-01 2.7753685109666471e+01
-4.7773393000479372e+00 3.3285733930005273e+02
-3.9209888093740908e-01 2.7732098880936402e+01
ITEM: ATOMS id type q x y z
1 2 2.2208 5.0335 0.853936 4.94669
2 1 -1.1104 0.97927 -3.3296 0.699541
6 1 -1.1104 0.757334 -3.23747 3.67108
10 1 -1.1104 0.835356 -0.471815 0.720204
12 2 2.2208 5.02042 -1.91501 2.15114
14 1 -1.1104 0.803125 -0.498296 3.62514
16 1 -1.1104 3.82146 -3.34266 0.816791
18 2 2.2208 2.30141 0.837537 2.27029
19 1 -1.1104 3.63305 -3.11362 3.70873
21 2 2.2208 2.21726 -1.92531 5.12523
23 1 -1.1104 3.74412 -0.5695 0.859069
24 1 -1.1104 3.63797 -0.515084 3.56173
3 1 -1.1104 0.818707 2.35943 1.03814
7 1 -1.1104 0.850987 2.36212 3.79158
13 2 2.2208 5.10948 3.6201 2.37951
17 1 -1.1104 3.56634 2.36003 0.951636
20 1 -1.1104 3.64361 2.22214 3.698
22 2 2.2208 2.19719 3.81871 5.06618
15 1 -1.1104 6.51047 -0.524248 3.53035
9 1 -1.1104 6.47382 2.22752 3.61237
172 1 -1.1104 3.71284 -3.26241 6.43837
171 1 -1.1104 6.54249 -0.262581 6.56542
368 2 2.2208 10.7501 20.8184 13.5338
4 1 -1.1104 6.55267 -3.28799 0.850349
8 1 -1.1104 6.44877 -3.44119 3.50892
11 1 -1.1104 6.61759 -0.481409 0.623729
5 1 -1.1104 6.38166 2.31862 0.88161
173 1 -1.1104 3.61123 2.30274 6.32238
166 1 -1.1104 0.81612 -3.26555 6.39757
168 1 -1.1104 6.55456 -3.23203 6.49698
165 2 2.2208 13.3382 17.7371 2.34083
31 2 2.2208 10.6965 0.929784 5.10033
32 1 -1.1104 12.1364 -3.08851 0.99351
34 1 -1.1104 12.0718 -3.49648 3.74296
36 1 -1.1104 12.1181 -0.45649 1.00041
37 2 2.2208 10.6565 -1.7336 2.26761
39 1 -1.1104 12.025 -0.589382 3.77071
40 1 -1.1104 9.48426 -3.39853 0.899223
42 2 2.2208 7.95435 0.862701 2.32175
43 1 -1.1104 9.3158 -3.40242 3.7571
45 2 2.2208 8.00461 -2.00123 5.04645
47 1 -1.1104 9.31902 -0.446529 0.883459
48 1 -1.1104 9.32253 -0.575236 3.81294
33 1 -1.1104 12.153 2.33386 0.529064
35 1 -1.1104 12.0634 2.28415 3.59516
41 1 -1.1104 9.18146 2.34825 0.72622
44 1 -1.1104 9.15573 2.34212 3.57175
46 2 2.2208 7.77137 3.66686 5.06724
38 2 2.2208 10.6814 3.70338 2.16063
349 2 2.2208 4.84996 3.55128 13.4689
208 1 -1.1104 9.22977 -3.3518 6.55922
370 2 2.2208 13.5245 0.929614 13.4944
334 2 2.2208 13.5153 3.82996 5.00879
50 2 2.2208 13.3447 -1.94064 5.13278
362 2 2.2208 13.4956 12.1722 13.4511
54 2 2.2208 5.09656 6.57275 5.04768
56 1 -1.1104 0.765592 8.04294 0.91946
58 1 -1.1104 0.647005 8.11288 3.75943
60 1 -1.1104 0.540517 5.29135 0.928048
67 1 -1.1104 0.775306 5.34678 3.69936
71 1 -1.1104 3.54858 8.1311 0.954498
72 2 2.2208 2.09102 6.61845 2.22221
74 1 -1.1104 3.57393 7.80809 3.73291
76 1 -1.1104 3.32222 5.38474 0.527836
79 1 -1.1104 3.49805 5.06676 3.73747
55 2 2.2208 4.98784 12.1721 5.04437
61 1 -1.1104 0.708775 10.8545 0.884268
66 2 2.2208 5.08267 9.43132 2.20001
68 1 -1.1104 0.850499 10.7846 3.78024
73 2 2.2208 2.14601 12.1722 2.31632
75 2 2.2208 2.30233 9.29628 5.15622
77 1 -1.1104 3.55563 11.0266 0.88951
80 1 -1.1104 3.4991 10.6822 3.65759
57 1 -1.1104 6.439 7.99159 0.880614
70 1 -1.1104 6.43403 10.7519 3.61783
64 1 -1.1104 6.4458 10.8562 0.703531
63 1 -1.1104 5.9514 5.15955 0.980058
59 1 -1.1104 6.41368 8.03035 3.73305
236 1 -1.1104 0.67609 5.13059 6.61675
235 1 -1.1104 6.30318 7.84735 6.5882
69 1 -1.1104 6.31191 4.89352 3.61253
62 1 -1.1104 0.937573 10.7688 6.49799
360 2 2.2208 10.5981 9.27533 13.4315
361 2 2.2208 7.74696 12.1751 13.6121
105 2 2.2208 13.513 6.42569 2.24549
84 2 2.2208 10.6766 6.4022 4.99045
86 1 -1.1104 12.1287 7.95793 0.813877
87 1 -1.1104 12.1779 7.71016 3.57733
88 1 -1.1104 11.9336 5.23007 0.892694
92 1 -1.1104 12.0506 4.93662 3.8435
94 1 -1.1104 9.42417 7.79751 1.02541
95 2 2.2208 7.67706 6.4491 2.14934
97 1 -1.1104 9.28149 7.92092 3.63794
99 1 -1.1104 8.93248 5.15713 0.770399
102 1 -1.1104 9.18538 5.19855 3.45597
85 2 2.2208 10.5299 12.3298 5.01289
89 1 -1.1104 11.9943 10.7604 0.925192
91 2 2.2208 10.6138 9.18203 2.20932
93 1 -1.1104 12.0602 10.7642 3.75783
96 2 2.2208 7.76644 12.1468 2.31139
98 2 2.2208 7.92652 9.39141 5.07465
100 1 -1.1104 9.31285 10.6837 0.756742
103 1 -1.1104 9.27863 10.8128 3.58628
90 1 -1.1104 12.0011 10.6852 6.45804
335 2 2.2208 13.3925 9.27037 5.04029
104 2 2.2208 13.3543 12.1624 2.25038
49 2 2.2208 13.2111 0.96258 2.19373
269 1 -1.1104 9.34518 5.24668 6.47619
314 1 -1.1104 8.99614 16.3271 9.10349
107 1 -1.1104 0.81269 13.6502 0.797502
113 1 -1.1104 0.70295 13.6419 3.48903
123 1 -1.1104 3.59161 13.6261 0.931646
128 1 -1.1104 3.72476 13.4707 3.61052
119 2 2.2208 5.13604 14.9537 2.29829
106 2 2.2208 5.11235 17.7012 5.01346
109 1 -1.1104 0.693708 19.1838 0.742249
114 1 -1.1104 0.745744 19.3319 3.60554
116 1 -1.1104 0.678283 16.5126 0.751682
120 2 2.2208 4.9075 20.5582 2.00235
121 1 -1.1104 0.8913 16.4849 3.55352
125 1 -1.1104 3.70035 19.1382 0.625548
127 2 2.2208 2.02549 17.8378 2.12822
129 1 -1.1104 3.54756 19.0801 3.39054
130 2 2.2208 2.18875 14.9043 4.9434
131 2 2.2208 2.18031 20.6322 4.94826
132 1 -1.1104 3.36224 16.3466 0.754094
134 1 -1.1104 3.7263 16.227 3.76499
126 1 -1.1104 3.57378 19.3272 6.41281
138 1 -1.1104 6.43439 19.064 0.784377
139 1 -1.1104 6.58493 19.1167 3.67808
110 1 -1.1104 6.45846 13.592 1.17806
302 1 -1.1104 0.802527 19.2662 6.35771
111 1 -1.1104 6.379 13.5044 6.63587
140 1 -1.1104 6.31801 16.3638 0.85563
122 1 -1.1104 6.40216 16.4149 3.61439
115 1 -1.1104 6.41559 13.7032 3.82164
354 2 2.2208 10.6565 3.54594 13.3788
337 2 2.2208 13.4672 14.9334 5.03608
145 1 -1.1104 12.0728 19.3338 6.4855
142 1 -1.1104 11.9737 13.5791 0.91447
146 1 -1.1104 11.9761 13.588 3.71498
153 1 -1.1104 9.23507 13.5904 0.858708
158 1 -1.1104 9.25733 13.5549 3.43487
160 2 2.2208 7.89454 15.0688 5.07221
150 2 2.2208 10.6101 15.05 2.17453
141 2 2.2208 10.708 17.8744 5.08945
144 1 -1.1104 12.1528 18.9814 0.80289
147 1 -1.1104 12.1598 19.1912 3.72609
148 1 -1.1104 12.0272 16.3826 0.932016
151 2 2.2208 10.7301 20.5048 2.15778
152 1 -1.1104 11.7942 16.261 3.7777
155 1 -1.1104 9.2211 19.2363 0.67105
157 2 2.2208 7.93273 17.9459 2.25542
159 1 -1.1104 9.43486 19.4255 3.63644
161 2 2.2208 8.02152 20.7595 5.04112
162 1 -1.1104 9.38365 16.4131 0.59398
164 1 -1.1104 9.18247 16.5155 3.53479
143 1 -1.1104 11.9207 13.5474 6.44775
156 1 -1.1104 9.23577 19.2356 6.40585
336 2 2.2208 13.6248 20.7497 5.10394
154 1 -1.1104 9.0852 13.7995 6.39589
174 1 -1.1104 3.74869 -0.427489 6.42332
357 2 2.2208 2.2524 12.1774 13.7287
167 1 -1.1104 0.778649 2.30273 6.72947
169 1 -1.1104 6.30421 2.43398 6.44894
170 1 -1.1104 0.797802 -0.483094 6.37624
175 2 2.2208 5.11256 0.664152 10.7971
176 1 -1.1104 0.831901 -3.36368 12.1039
180 1 -1.1104 0.906209 -3.41517 9.30453
184 1 -1.1104 0.855867 -0.440949 11.9302
186 2 2.2208 4.97616 -1.77437 7.81993
188 1 -1.1104 0.745994 -0.710941 9.1707
190 1 -1.1104 3.4791 -3.25615 11.8093
192 2 2.2208 2.27368 0.953767 7.88285
193 1 -1.1104 3.73886 -3.24333 9.145
195 2 2.2208 2.2091 -1.99926 10.6281
197 1 -1.1104 3.72622 -0.618219 12.09
198 1 -1.1104 3.58483 -0.582097 9.12133
177 1 -1.1104 0.88411 2.41481 12.0331
181 1 -1.1104 0.770129 2.40696 9.44577
191 1 -1.1104 3.6764 2.20905 12.0123
194 1 -1.1104 3.38787 2.38714 9.22783
187 2 2.2208 4.87124 3.728 7.83956
196 2 2.2208 2.2683 3.78386 10.7567
182 1 -1.1104 6.38543 -3.36974 9.33398
189 1 -1.1104 6.41552 -0.593376 9.36883
185 1 -1.1104 6.55372 -0.546509 12.2582
179 1 -1.1104 6.29824 2.26362 12.0336
183 1 -1.1104 6.30359 2.22873 9.37739
323 1 -1.1104 11.8022 16.2876 9.42745
369 2 2.2208 10.5026 14.9425 13.3612
178 1 -1.1104 6.48512 -3.44339 12.0787
205 1 -1.1104 11.9522 -3.26804 6.51282
210 1 -1.1104 9.21884 -0.328029 6.62577
206 1 -1.1104 12.0118 2.40713 6.24782
51 2 2.2208 7.96351 -4.71932 2.08154
229 2 2.2208 13.5007 0.884667 7.91576
364 2 2.2208 4.98745 20.61 13.3729
207 1 -1.1104 11.8797 -0.483936 6.58364
209 1 -1.1104 9.23467 2.47078 6.39588
211 2 2.2208 10.7558 0.867956 10.6363
212 1 -1.1104 12.323 -3.26021 12.2686
214 1 -1.1104 12.1846 -3.1114 9.30064
216 1 -1.1104 12.1027 -0.565812 12.2269
217 2 2.2208 10.6241 -1.94464 8.03467
219 1 -1.1104 12.1238 -0.395877 9.46685
220 1 -1.1104 9.52083 -3.24807 12.2131
222 2 2.2208 7.74389 1.01515 7.93225
223 1 -1.1104 9.30846 -3.41573 9.36986
225 2 2.2208 7.9186 -2.03366 10.7355
227 1 -1.1104 9.27399 -0.600509 12.2566
228 1 -1.1104 9.12462 -0.642942 9.38132
213 1 -1.1104 12.2253 2.22202 12.074
215 1 -1.1104 12.0052 2.33201 8.98536
221 1 -1.1104 9.41115 2.11937 12.0782
224 1 -1.1104 9.11245 2.42303 9.2046
218 2 2.2208 10.7683 3.75503 7.67987
226 2 2.2208 7.64607 3.70937 10.6012
338 2 2.2208 13.3049 3.54297 10.6539
230 2 2.2208 13.5319 -1.89162 10.8484
26 2 2.2208 -0.429822 0.998586 5.10932
327 1 -1.1104 12.0505 19.0415 9.2502
234 1 -1.1104 0.926757 7.77197 6.56754
239 1 -1.1104 3.51302 5.03342 6.61971
238 1 -1.1104 3.62918 7.75016 6.54967
78 1 -1.1104 3.71574 10.8346 6.43542
237 1 -1.1104 6.40186 5.1308 6.37054
240 2 2.2208 4.90658 6.64996 10.7247
242 1 -1.1104 0.742854 8.04511 12.2857
244 1 -1.1104 0.894982 8.10649 9.34872
246 1 -1.1104 0.79249 5.19082 12.1676
251 1 -1.1104 0.870331 5.1508 9.44056
255 1 -1.1104 3.48192 7.95051 12.1601
256 2 2.2208 2.23796 6.51425 7.926
258 1 -1.1104 3.58489 8.06476 9.45624
260 1 -1.1104 3.56514 5.11862 12.1832
262 1 -1.1104 3.63326 5.30213 9.34741
241 2 2.2208 4.89782 12.3527 10.7337
247 1 -1.1104 0.771257 10.7984 12.1565
250 2 2.2208 4.97005 9.36729 7.92477
252 1 -1.1104 0.796926 10.7969 9.35898
257 2 2.2208 2.15496 12.2741 7.85036
259 2 2.2208 2.14429 9.37788 10.7856
261 1 -1.1104 3.64498 10.7621 12.205
263 1 -1.1104 3.66277 10.9079 9.2428
245 1 -1.1104 6.52683 8.03968 9.40096
254 1 -1.1104 6.44253 10.8273 9.20186
243 1 -1.1104 6.47507 8.07919 12.0617
65 1 -1.1104 6.54689 10.6663 6.33212
249 1 -1.1104 6.42208 10.9094 12.1528
248 1 -1.1104 6.26028 5.41134 11.972
365 2 2.2208 4.93732 14.9852 13.5856
321 1 -1.1104 9.21205 19.3192 12.0081
267 1 -1.1104 9.2191 7.88771 6.2441
265 1 -1.1104 12.0052 7.84718 6.47119
101 1 -1.1104 9.04628 10.9149 6.35032
340 2 2.2208 13.4611 12.2052 7.8581
253 1 -1.1104 6.31421 4.99389 9.21513
339 2 2.2208 13.5648 6.58002 7.9743
341 2 2.2208 13.5935 9.35906 10.643
266 1 -1.1104 12.3501 5.02577 6.77947
285 1 -1.1104 9.25064 8.03425 11.9628
280 1 -1.1104 12.0589 5.06052 12.1523
283 1 -1.1104 11.9906 5.01655 9.31296
268 1 -1.1104 9.22104 5.02231 9.11434
271 1 -1.1104 9.26764 5.07373 11.9538
273 1 -1.1104 9.31039 7.94783 9.22322
275 2 2.2208 7.81128 6.44506 7.85533
276 2 2.2208 10.8658 6.55503 10.5722
278 1 -1.1104 12.2051 8.01684 12.0746
279 1 -1.1104 12.2143 7.7027 9.28195
284 1 -1.1104 12.0463 10.6974 9.20103
282 2 2.2208 10.6109 9.29548 7.80856
281 1 -1.1104 12.1125 10.668 12.1463
264 1 -1.1104 9.25415 10.5646 9.21835
270 1 -1.1104 9.25176 10.8248 12.2323
272 2 2.2208 7.76157 9.39175 10.7328
274 2 2.2208 7.67798 12.1148 7.92972
277 2 2.2208 10.7099 12.1113 10.6748
363 2 2.2208 2.23979 17.8425 13.5858
324 2 2.2208 10.6881 20.6695 7.90509
29 2 2.2208 5.23629 -4.7307 4.9921
133 1 -1.1104 3.46809 16.3904 6.69905
124 1 -1.1104 3.44734 13.5886 6.47878
117 1 -1.1104 0.902984 16.4568 6.19858
108 1 -1.1104 0.738301 13.8175 6.36949
112 1 -1.1104 6.30201 19.0296 6.51193
118 1 -1.1104 6.4866 16.2973 6.42882
289 1 -1.1104 6.35801 16.5724 9.24654
288 1 -1.1104 6.547 19.4134 9.37404
297 1 -1.1104 6.29577 13.6576 12.1836
306 1 -1.1104 6.43921 16.1886 12.1281
296 1 -1.1104 6.46227 19.0265 12.053
290 1 -1.1104 6.45392 13.6517 9.3791
305 1 -1.1104 3.68915 13.758 9.27992
299 1 -1.1104 0.684213 13.5561 12.0624
287 1 -1.1104 3.37192 13.4228 12.1126
294 1 -1.1104 0.864625 13.5501 9.21058
310 2 2.2208 2.13047 15.0928 10.6854
309 2 2.2208 2.30676 20.7349 10.6619
308 1 -1.1104 3.50944 16.2078 12.1111
307 1 -1.1104 0.6826 16.3637 12.0566
292 1 -1.1104 0.899248 16.5126 9.30011
304 1 -1.1104 3.62456 16.4513 9.47791
303 2 2.2208 2.16814 17.8497 7.9404
301 1 -1.1104 3.59218 19.1501 9.25535
300 2 2.2208 4.9412 17.7086 10.8549
291 1 -1.1104 0.940633 19.3601 9.41745
298 1 -1.1104 0.769644 19.2053 12.2188
295 2 2.2208 5.05864 14.9683 7.95761
286 1 -1.1104 3.63511 19.2745 12.0526
293 2 2.2208 5.06406 20.5361 7.82264
53 2 2.2208 13.3868 -4.6367 2.29774
345 2 2.2208 13.4371 20.4482 10.6666
348 2 2.2208 2.16494 0.756574 13.4259
316 2 2.2208 7.96572 20.7581 10.5892
317 2 2.2208 7.76089 14.9859 10.6214
149 1 -1.1104 12.0799 16.3315 6.59819
163 1 -1.1104 9.41493 16.511 6.34367
319 1 -1.1104 9.21574 13.4479 9.2735
318 1 -1.1104 9.36158 19.204 9.19029
356 2 2.2208 5.00152 9.35962 13.5234
333 2 2.2208 13.3553 15.0553 10.795
332 2 2.2208 13.5866 17.7333 7.95132
326 1 -1.1104 12.1966 16.2267 12.2784
325 2 2.2208 10.5703 15.028 7.75722
315 1 -1.1104 9.26441 16.4704 11.9692
329 1 -1.1104 11.8996 19.1639 12.0571
320 2 2.2208 7.74446 17.9036 7.94788
331 2 2.2208 10.538 17.707 10.6028
330 1 -1.1104 11.8158 13.5128 12.0724
322 1 -1.1104 9.03988 13.6018 12.2239
328 1 -1.1104 11.8762 13.5725 9.42524
353 2 2.2208 10.8152 -1.90619 13.5861
355 2 2.2208 2.11717 6.58484 13.5407
366 2 2.2208 13.4885 6.50709 13.5189
352 2 2.2208 7.96959 0.742872 13.555
372 2 2.2208 13.3802 17.7584 13.6291
347 2 2.2208 4.92701 -1.92614 13.5833
359 2 2.2208 7.87888 6.52431 13.3421
371 2 2.2208 7.92796 17.729 13.4705
28 2 2.2208 2.39675 -4.65117 2.27664
232 2 2.2208 10.6547 -4.816 10.8873
231 2 2.2208 7.85678 -4.59814 8.06025
233 2 2.2208 13.4215 -4.61494 8.02606
203 2 2.2208 5.0191 -4.555 10.7442
202 2 2.2208 2.14726 -4.65867 7.92264
472 2 2.2208 13.5609 -4.75665 13.6145
400 2 2.2208 4.97582 0.942933 16.2568
401 1 -1.1104 0.769048 -3.21672 17.9988
405 1 -1.1104 0.688127 -3.19896 15.189
413 1 -1.1104 0.70847 -0.514349 17.4717
415 2 2.2208 5.01067 -1.94938 19.1
417 1 -1.1104 0.777119 -0.52025 14.8131
421 1 -1.1104 3.74477 -3.22275 17.5414
423 2 2.2208 2.15758 0.894505 19.1314
424 1 -1.1104 3.47937 -3.32342 14.6641
428 2 2.2208 2.09811 -1.94377 16.2099
430 1 -1.1104 3.53832 -0.274097 17.6358
431 1 -1.1104 3.59062 -0.573331 14.8618
402 1 -1.1104 0.987509 2.52432 17.7321
407 1 -1.1104 0.583846 2.25324 14.911
422 1 -1.1104 3.73453 2.40276 17.7577
426 1 -1.1104 3.57008 2.29918 14.834
429 2 2.2208 2.11925 3.76422 16.2134
416 2 2.2208 5.23562 3.82143 19.157
409 1 -1.1104 6.2841 -3.31476 14.9545
410 1 -1.1104 6.37728 -3.14564 20.6565
419 1 -1.1104 6.45901 -0.491278 14.9971
427 1 -1.1104 3.39352 2.30728 20.4867
404 1 -1.1104 6.44758 2.24288 17.5967
386 2 2.2208 13.3647 3.78046 27.501
392 2 2.2208 10.6541 6.73122 27.4607
601 2 2.2208 13.3879 15.0556 21.8063
394 2 2.2208 10.6199 12.1785 27.5463
414 1 -1.1104 6.41881 -0.651094 17.8052
411 1 -1.1104 6.4677 2.14241 14.9256
420 1 -1.1104 6.4222 -0.180864 20.7152
403 1 -1.1104 6.48243 -3.42095 17.7925
599 2 2.2208 13.4926 0.88379 19.1037
443 2 2.2208 10.6121 0.971047 16.2739
444 1 -1.1104 12.1904 -3.29712 17.8347
446 1 -1.1104 12.1766 -3.32802 15.0901
450 1 -1.1104 12.0734 -0.453688 17.8043
451 2 2.2208 10.6391 -1.8373 19.2313
453 1 -1.1104 12.2061 -0.507355 14.9595
455 1 -1.1104 9.08867 -3.25908 17.4992
457 2 2.2208 7.82048 0.962671 19.0533
458 1 -1.1104 9.2902 -3.4376 14.7372
462 2 2.2208 7.77684 -1.97647 16.2438
464 1 -1.1104 9.25812 -0.562352 17.5636
465 1 -1.1104 9.3818 -0.692785 14.8596
445 1 -1.1104 11.9956 2.23495 17.6189
448 1 -1.1104 11.9794 2.14362 14.8425
456 1 -1.1104 9.19406 2.35498 17.7261
460 1 -1.1104 9.28385 2.18572 14.925
452 2 2.2208 10.5378 3.75885 19.1658
463 2 2.2208 7.76817 3.71362 16.2177
449 1 -1.1104 11.9799 2.4818 20.491
398 2 2.2208 2.07415 14.9584 27.5615
600 2 2.2208 13.3766 3.6292 16.2501
459 1 -1.1104 9.09915 -3.28958 20.3504
447 1 -1.1104 11.8776 -3.14459 20.6398
471 2 2.2208 13.4694 -1.88365 16.3692
373 2 2.2208 4.98395 0.960606 27.4801
387 2 2.2208 4.8971 6.51631 27.5371
476 2 2.2208 4.90179 6.55304 16.2393
478 1 -1.1104 0.706308 8.10134 17.9158
480 1 -1.1104 0.758761 7.97181 15.0206
484 1 -1.1104 0.664131 5.27945 17.73
489 1 -1.1104 0.748037 5.15543 14.7352
497 1 -1.1104 3.54366 7.99612 17.553
498 2 2.2208 2.24149 6.51001 19.0989
500 1 -1.1104 3.53001 7.95093 14.8409
503 1 -1.1104 3.58815 5.10081 17.778
505 1 -1.1104 3.50689 5.11741 14.8223
477 2 2.2208 5.08381 12.1094 16.2257
485 1 -1.1104 0.81894 10.783 17.8575
488 2 2.2208 4.82676 9.51195 18.9422
491 1 -1.1104 0.884454 10.664 15.0726
499 2 2.2208 2.14803 12.1768 19.3167
502 2 2.2208 2.16922 9.4514 16.3918
504 1 -1.1104 3.48587 10.8642 17.8694
507 1 -1.1104 3.4489 10.6881 14.9959
482 1 -1.1104 6.27153 8.02363 14.8945
508 1 -1.1104 3.5459 10.9593 20.7605
487 1 -1.1104 6.44706 10.7488 17.5903
479 1 -1.1104 6.29889 7.76465 17.6474
495 1 -1.1104 6.27972 10.6499 14.9184
501 1 -1.1104 3.47748 7.99281 20.4247
486 1 -1.1104 6.38148 5.07186 17.544
493 1 -1.1104 6.39789 4.87507 14.8521
496 1 -1.1104 6.24224 10.7298 20.3972
440 2 2.2208 13.4677 9.47007 21.7367
572 2 2.2208 13.3897 6.66104 19.0645
512 2 2.2208 10.6505 6.60749 16.1767
514 1 -1.1104 11.9364 8.14503 17.6813
515 1 -1.1104 12.0815 7.96646 14.9749
517 1 -1.1104 11.9234 5.16025 17.6294
520 1 -1.1104 12.0406 4.99957 14.9189
524 1 -1.1104 9.18792 7.90761 17.7826
525 2 2.2208 7.72913 6.64626 19.1149
527 1 -1.1104 8.94411 7.89023 14.7151
530 1 -1.1104 8.97174 5.08124 17.7242
532 1 -1.1104 9.22624 5.0631 14.723
513 2 2.2208 10.5837 11.9776 16.3686
518 1 -1.1104 12.0433 10.8449 17.6118
519 2 2.2208 10.5036 9.29069 19.1875
522 1 -1.1104 12.0425 10.6776 14.8041
526 2 2.2208 7.64863 12.1887 19.1313
529 2 2.2208 7.7911 9.28729 16.2455
531 1 -1.1104 9.2451 10.558 17.5638
534 1 -1.1104 9.13161 10.6848 14.9011
538 2 2.2208 13.3956 12.324 19.1082
516 1 -1.1104 12.0551 8.12289 20.5419
523 1 -1.1104 12.0974 10.8194 20.5372
533 1 -1.1104 9.30732 5.16595 20.5584
375 2 2.2208 13.6047 20.5179 27.7532
692 1 -1.1104 12.1235 16.3187 26.1523
396 2 2.2208 2.24558 20.5093 27.5123
540 1 -1.1104 0.876987 13.7285 17.7765
544 1 -1.1104 0.833215 13.4676 15.0307
560 1 -1.1104 3.74439 13.6967 17.6534
563 1 -1.1104 3.65267 13.5864 14.8622
554 2 2.2208 5.0101 15.0781 18.9734
539 2 2.2208 4.979 17.8717 16.2468
541 1 -1.1104 0.831651 19.2192 17.8515
546 1 -1.1104 0.860724 19.1474 14.9884
552 1 -1.1104 0.750811 16.4672 17.4875
555 2 2.2208 4.82778 20.5531 19.0309
556 1 -1.1104 0.730493 16.1929 14.8717
561 1 -1.1104 3.61532 19.1863 17.6654
562 2 2.2208 2.10461 17.8026 19.1429
565 1 -1.1104 3.5496 19.2806 14.9143
567 2 2.2208 2.33065 15.1421 16.3339
568 2 2.2208 2.12432 20.5995 16.3138
569 1 -1.1104 3.63586 16.6066 17.7599
570 1 -1.1104 3.65284 16.2962 14.8786
550 1 -1.1104 6.29219 19.1875 14.9754
548 1 -1.1104 6.53693 13.5684 14.956
542 1 -1.1104 6.47439 13.6481 17.7102
558 1 -1.1104 6.38247 16.4786 14.9195
553 1 -1.1104 6.54623 16.3903 17.6999
543 1 -1.1104 6.46257 19.2113 17.6987
551 1 -1.1104 6.32668 19.0743 20.741
566 1 -1.1104 3.55768 19.1184 20.4156
557 1 -1.1104 0.648956 16.4993 20.3297
547 1 -1.1104 0.584188 19.2365 20.5807
564 1 -1.1104 3.37867 13.6231 20.6179
549 1 -1.1104 6.12491 13.5665 20.572
694 1 -1.1104 9.20317 19.2517 23.3491
475 2 2.2208 13.433 20.7317 16.3679
581 1 -1.1104 12.1998 19.2645 20.5738
576 1 -1.1104 12.0129 13.463 17.6001
578 1 -1.1104 11.968 13.471 14.9362
587 1 -1.1104 9.19681 13.667 17.757
590 1 -1.1104 9.24049 13.5451 14.946
594 2 2.2208 7.81197 15.017 16.2547
583 2 2.2208 10.6062 15.0229 19.0351
575 2 2.2208 10.6998 17.865 16.31
577 1 -1.1104 12.0967 19.4095 17.8738
580 1 -1.1104 12.234 19.234 14.9626
582 1 -1.1104 12.0228 16.401 17.612
584 2 2.2208 10.5898 20.6061 19.2631
585 1 -1.1104 11.8644 16.3588 14.9927
588 1 -1.1104 9.25036 19.1498 17.6836
589 2 2.2208 7.70663 17.8993 19.0621
592 1 -1.1104 9.34983 19.1934 14.7658
595 2 2.2208 7.98753 20.6769 16.2882
596 1 -1.1104 9.28333 16.5277 17.5088
597 1 -1.1104 9.12639 16.3519 14.6953
598 1 -1.1104 9.16614 16.3698 20.3887
593 1 -1.1104 9.20966 19.1645 20.5509
579 1 -1.1104 12.1273 13.6588 20.5212
573 2 2.2208 13.4334 9.42724 16.4326
510 2 2.2208 13.2547 14.8669 16.1793
468 2 2.2208 10.7329 -4.68346 16.3312
425 1 -1.1104 3.37726 -3.33871 20.4729
418 1 -1.1104 0.792075 -0.583538 20.5889
406 1 -1.1104 0.697509 -3.29149 20.8183
408 1 -1.1104 0.664102 2.22873 20.6396
509 2 2.2208 13.4713 17.7928 19.1103
432 1 -1.1104 3.57923 -0.634981 20.5127
603 2 2.2208 4.98987 0.93792 22.0605
604 1 -1.1104 0.949123 -3.57713 23.4182
608 1 -1.1104 0.808345 -3.48208 26.1504
612 1 -1.1104 0.717087 -0.537664 23.2382
614 2 2.2208 5.12645 -1.89747 24.6876
616 1 -1.1104 0.700184 -0.52539 26.123
618 1 -1.1104 3.79797 -3.38732 23.1952
620 2 2.2208 2.20439 0.994993 24.7637
621 1 -1.1104 3.56429 -3.2591 26.1007
623 2 2.2208 2.16283 -1.89908 22.0645
625 1 -1.1104 3.48664 -0.640891 23.4284
626 1 -1.1104 3.63437 -0.48913 26.158
605 1 -1.1104 0.712593 2.35634 23.3139
609 1 -1.1104 0.696878 2.34446 26.206
619 1 -1.1104 3.61385 2.44879 23.3957
622 1 -1.1104 3.48752 2.40857 26.1903
624 2 2.2208 2.03398 3.85024 21.8013
615 2 2.2208 4.91448 3.78674 24.7292
610 1 -1.1104 6.3366 -3.43928 26.1511
606 1 -1.1104 6.67372 -3.25462 23.3693
607 1 -1.1104 6.42515 2.28314 23.3505
611 1 -1.1104 6.23232 2.33348 26.0853
412 1 -1.1104 6.30265 2.45609 20.657
613 1 -1.1104 6.43687 -0.41531 23.3381
634 2 2.2208 2.23321 -4.77128 24.7448
397 2 2.2208 5.09133 17.7339 27.5131
389 2 2.2208 4.90013 12.255 27.6634
632 2 2.2208 5.10557 -4.73252 27.5748
666 2 2.2208 13.4625 1.08522 24.7166
719 2 2.2208 7.60014 14.9589 22.0039
461 1 -1.1104 9.07531 2.44655 20.3921
384 2 2.2208 7.80212 3.68503 27.5241
441 2 2.2208 13.4548 3.89183 21.7948
383 2 2.2208 7.8783 -1.8244 27.4077
665 2 2.2208 13.5053 -1.70138 21.9736
617 1 -1.1104 6.45583 -0.531244 26.0095
454 1 -1.1104 11.8847 -0.52481 20.5073
466 1 -1.1104 9.25523 -0.395406 20.4897
639 2 2.2208 10.5805 1.03061 21.8195
640 1 -1.1104 12.2267 -3.06801 23.2983
642 1 -1.1104 12.0821 -3.1394 26.207
644 1 -1.1104 12.0715 -0.281903 23.1448
645 2 2.2208 10.746 -1.70354 24.7321
647 1 -1.1104 12.0655 -0.378918 26.0456
648 1 -1.1104 9.41983 -3.08902 23.4438
650 2 2.2208 7.76088 1.03851 24.745
651 1 -1.1104 9.23166 -3.1851 26.1722
653 2 2.2208 7.79425 -1.74013 21.8868
655 1 -1.1104 9.10954 -0.224321 23.2723
656 1 -1.1104 9.24934 -0.391784 26.0768
641 1 -1.1104 12.2 2.4886 23.2974
643 1 -1.1104 11.886 2.41877 26.0323
649 1 -1.1104 9.34187 2.30506 23.3144
652 1 -1.1104 8.98833 2.38144 26.0276
654 2 2.2208 7.84416 3.69526 22.0932
646 2 2.2208 10.6739 3.82345 24.647
717 1 -1.1104 9.06763 13.6128 26.2566
633 2 2.2208 4.9415 -4.78663 21.8817
628 2 2.2208 10.5592 17.6982 21.7284
490 1 -1.1104 0.746245 5.13267 20.4778
492 1 -1.1104 0.821262 10.7224 20.5659
481 1 -1.1104 0.792414 7.99695 20.6506
506 1 -1.1104 3.62697 5.18105 20.5638
483 1 -1.1104 6.28026 7.90592 20.7477
494 1 -1.1104 6.40885 5.34661 20.5172
668 2 2.2208 4.91626 6.59484 21.9328
670 1 -1.1104 0.785649 8.07998 23.4538
672 1 -1.1104 0.695972 7.85612 26.1709
674 1 -1.1104 0.7537 5.25449 23.3485
679 1 -1.1104 0.870033 5.11591 26.1686
683 1 -1.1104 3.68886 7.99341 23.4412
684 2 2.2208 2.21738 6.55164 24.6878
686 1 -1.1104 3.66565 8.00713 26.1852
688 1 -1.1104 3.60474 5.27266 23.3366
690 1 -1.1104 3.67288 5.16644 26.027
669 2 2.2208 4.94743 12.2547 22.1264
675 1 -1.1104 0.634498 10.7425 23.3845
678 2 2.2208 4.89745 9.43105 24.8873
680 1 -1.1104 0.735827 10.6414 26.0812
685 2 2.2208 2.01099 12.1459 24.7848
687 2 2.2208 2.17947 9.47224 21.9573
689 1 -1.1104 3.50589 10.7469 23.521
691 1 -1.1104 3.3545 10.8877 26.3552
681 1 -1.1104 6.46313 5.28069 26.1752
671 1 -1.1104 6.21613 8.11343 23.4227
673 1 -1.1104 6.41386 8.14674 26.3064
676 1 -1.1104 6.34068 5.16697 23.3395
682 1 -1.1104 6.3124 10.7563 26.1232
677 1 -1.1104 6.37766 10.9368 23.2611
664 2 2.2208 10.6997 15.1727 24.6258
385 2 2.2208 13.5754 -1.80076 27.6435
521 1 -1.1104 11.9953 5.30737 20.4036
528 1 -1.1104 9.2528 7.83353 20.5686
720 2 2.2208 13.3093 12.1236 24.8277
722 2 2.2208 13.4631 6.75627 24.6836
535 1 -1.1104 9.15842 10.5914 20.495
700 1 -1.1104 9.43064 5.0195 25.9885
702 1 -1.1104 9.18085 5.28163 23.4689
704 1 -1.1104 9.14476 7.97031 26.283
706 2 2.2208 7.77762 6.69244 24.7765
707 2 2.2208 10.6379 6.66488 21.8482
709 1 -1.1104 11.9187 8.09104 23.4706
710 1 -1.1104 12.0359 8.05151 26.1577
711 1 -1.1104 12.0703 5.32428 23.124
714 1 -1.1104 12.1393 5.33667 26.1481
716 1 -1.1104 9.2358 8.1331 23.3482
699 1 -1.1104 9.06122 10.8786 26.205
701 1 -1.1104 9.25397 10.8271 23.304
703 2 2.2208 7.65958 9.42297 21.8135
705 2 2.2208 7.75417 12.3105 24.8509
708 2 2.2208 10.6349 12.1846 21.9389
712 1 -1.1104 12.1391 10.7243 23.2606
713 2 2.2208 10.5032 9.45804 24.7786
715 1 -1.1104 11.9354 10.7498 26.3278
721 2 2.2208 7.84558 20.7045 21.967
659 1 -1.1104 11.8928 16.5126 23.3435
571 1 -1.1104 3.54968 16.5102 20.3776
545 1 -1.1104 0.715002 13.4017 20.5842
559 1 -1.1104 6.29726 16.3895 20.4832
388 2 2.2208 2.09966 9.42636 27.6154
747 1 -1.1104 9.32841 16.2799 25.9398
726 1 -1.1104 6.49532 16.2875 26.2276
741 1 -1.1104 6.28071 16.3309 23.346
698 1 -1.1104 6.4682 19.2467 26.281
724 1 -1.1104 6.2119 13.5655 26.133
730 1 -1.1104 6.33481 19.0245 23.4982
725 1 -1.1104 3.6134 13.7737 23.4038
729 1 -1.1104 0.599442 13.6187 26.2873
735 1 -1.1104 0.744321 13.5397 23.3784
740 1 -1.1104 3.5712 13.8002 26.2472
732 2 2.2208 5.03625 15.1105 24.8329
723 1 -1.1104 3.72458 19.1129 23.2042
727 1 -1.1104 0.958268 19.0833 26.0628
728 1 -1.1104 0.613951 16.4318 26.0564
731 2 2.2208 5.04986 20.7256 24.6691
734 1 -1.1104 0.913543 19.1888 23.4109
736 2 2.2208 5.01086 17.737 22.0209
737 1 -1.1104 3.72675 19.2113 26.2306
738 2 2.2208 2.21026 17.6983 24.7272
739 1 -1.1104 3.45227 16.3021 26.1069
742 1 -1.1104 0.821884 16.4093 23.0443
743 1 -1.1104 3.56121 16.4725 23.2852
744 2 2.2208 2.27257 20.4939 21.8708
745 2 2.2208 2.20802 14.931 21.8585
733 1 -1.1104 6.37791 13.7015 23.4563
657 1 -1.1104 12.067 13.5234 26.1399
602 2 2.2208 13.5334 17.896 24.7458
377 2 2.2208 7.84347 14.99 27.6846
379 2 2.2208 7.84319 20.5099 27.4681
693 1 -1.1104 9.27447 13.6005 23.4185
635 1 -1.1104 12.1332 19.0427 23.3111
667 2 2.2208 10.7527 20.6333 24.7721
627 2 2.2208 13.4899 20.6484 21.9615
586 1 -1.1104 12.0983 16.363 20.4235
591 1 -1.1104 9.09222 13.5384 20.537
395 2 2.2208 13.4661 9.378 27.6777
695 2 2.2208 7.83613 17.7558 24.7089
718 1 -1.1104 9.25476 19.274 26.1114
629 1 -1.1104 12.1147 13.5659 23.2724
658 1 -1.1104 12.128 19.1926 26.0899
746 1 -1.1104 9.28191 16.5019 23.2114
382 2 2.2208 10.6806 0.994907 27.4393
380 2 2.2208 2.06094 3.76447 27.5775
374 2 2.2208 13.527 14.9158 27.5404
376 2 2.2208 2.28595 -1.93997 27.5768
663 2 2.2208 7.68277 -4.64544 24.7619
660 2 2.2208 13.529 -4.6162 24.5587
661 2 2.2208 10.6613 -4.61821 27.462
467 2 2.2208 13.5497 -4.55662 19.2545
662 2 2.2208 10.6502 -4.5583 21.9316
378 2 2.2208 10.705 17.7054 27.4321
434 2 2.2208 4.96393 -4.6731 16.3884
469 2 2.2208 7.82351 -4.69253 19.1754
393 2 2.2208 7.85747 9.38453 27.4637
751 2 2.2208 5.03099 23.3958 4.92703
753 1 -1.1104 0.834906 24.7385 0.935082
754 1 -1.1104 0.946697 24.9059 3.7504
755 1 -1.1104 1.01764 21.9697 0.933727
757 2 2.2208 5.07127 26.2796 2.3482
758 1 -1.1104 0.981156 22.1375 3.71276
760 1 -1.1104 3.76703 24.8081 1.06492
761 2 2.2208 2.21711 23.4621 2.34193
763 1 -1.1104 3.68107 24.8545 3.7456
764 2 2.2208 2.19042 26.3116 4.98445
765 1 -1.1104 3.62512 22.1795 0.885752
766 1 -1.1104 3.77889 27.5977 0.861675
767 1 -1.1104 3.4797 21.7952 3.6344
756 1 -1.1104 0.884534 27.7759 0.885559
759 1 -1.1104 0.72051 27.7527 3.6204
768 1 -1.1104 3.38439 27.6498 3.62009
752 2 2.2208 5.00762 29.0019 5.00587
762 2 2.2208 2.07295 29.2871 2.3026
775 1 -1.1104 6.54429 27.6409 0.921633
772 1 -1.1104 6.59148 24.6144 0.691304
895 1 -1.1104 0.94421 27.7159 6.47682
776 1 -1.1104 6.44095 21.9202 3.67879
899 1 -1.1104 3.66619 22.1174 6.358
777 1 -1.1104 6.46736 27.7734 3.58767
892 1 -1.1104 0.713523 24.9519 6.49355
898 1 -1.1104 3.61382 24.9109 6.41822
896 1 -1.1104 6.40176 21.888 6.38868
893 1 -1.1104 6.36646 24.8734 6.27169
773 1 -1.1104 6.58187 24.7721 3.55653
1048 1 -1.1104 9.2862 41.7963 9.31667
897 1 -1.1104 6.53066 27.5287 6.30607
774 1 -1.1104 6.53412 21.728 0.818492
796 2 2.2208 13.6456 23.4117 2.13398
778 2 2.2208 10.9553 23.5312 5.06534
780 1 -1.1104 12.0469 24.7033 0.654473
781 1 -1.1104 12.274 24.854 3.5965
782 1 -1.1104 12.2079 21.7427 0.958611
783 1 -1.1104 12.0694 27.4932 0.789856
784 2 2.2208 10.688 26.3237 2.29936
785 1 -1.1104 12.2232 22.0208 3.73322
787 1 -1.1104 9.31679 24.6776 0.818371
788 2 2.2208 7.82535 23.2583 2.02911
790 1 -1.1104 9.3869 24.9613 3.86531
791 2 2.2208 7.97323 26.1894 5.20968
792 1 -1.1104 9.25337 21.8948 0.803195
794 1 -1.1104 9.27597 22.1484 3.71775
786 1 -1.1104 12.1987 27.5416 3.71837
793 1 -1.1104 9.28623 27.4995 0.967718
795 1 -1.1104 9.39121 27.7459 3.72869
779 2 2.2208 10.7827 29.0784 5.20745
789 2 2.2208 7.75557 29.1515 2.31886
926 1 -1.1104 11.9505 22.3007 6.61745
798 2 2.2208 13.6559 26.3526 5.00672
930 1 -1.1104 9.35489 27.7436 6.59393
927 1 -1.1104 12.0466 27.8582 6.75822
925 1 -1.1104 12.1782 25.0208 6.37538
1102 2 2.2208 7.90247 40.4798 13.6171
9897 2 2.2208 13.5679 45.7672 7.68713
800 1 -1.1104 0.627558 30.4933 1.03838
803 1 -1.1104 0.809189 30.538 3.88931
806 1 -1.1104 0.889119 33.2164 1.16226
807 2 2.2208 5.1623 31.8678 2.3475
809 1 -1.1104 0.810181 33.3644 3.84009
811 1 -1.1104 3.59512 30.5012 1.01281
814 1 -1.1104 3.80025 30.5229 3.87418
816 2 2.2208 2.26863 31.9308 5.11309
818 1 -1.1104 3.62408 33.2825 1.11502
819 1 -1.1104 3.69399 33.4227 3.91392
799 2 2.2208 5.15711 34.6936 5.2341
801 1 -1.1104 0.946038 35.9756 1.00633
804 1 -1.1104 0.896741 36.0428 3.86021
808 2 2.2208 5.20023 37.6639 2.47613
812 1 -1.1104 3.66095 36.0878 1.17946
813 2 2.2208 2.27406 34.6564 2.44064
815 1 -1.1104 3.78301 36.3993 3.82465
817 2 2.2208 2.26354 37.5139 5.3062
805 1 -1.1104 6.51805 35.8913 3.83494
825 1 -1.1104 6.39324 33.0949 0.708508
949 1 -1.1104 0.670509 30.608 6.66702
952 1 -1.1104 6.58896 36.2228 6.86546
950 1 -1.1104 0.820169 36.0257 6.56582
824 1 -1.1104 6.43835 30.52 3.68823
802 1 -1.1104 6.62333 35.9337 0.994432
810 1 -1.1104 6.61892 33.1793 3.81862
823 1 -1.1104 6.45769 30.3839 0.906949
867 1 -1.1104 3.64555 39.0376 3.6129
951 1 -1.1104 6.40547 30.2271 6.70627
953 1 -1.1104 0.814451 33.3848 6.6502
956 1 -1.1104 3.65777 36.1204 6.48059
957 1 -1.1104 3.58127 33.4444 6.50232
1100 2 2.2208 13.4455 29.0514 13.6718
844 2 2.2208 13.5687 34.742 2.23847
1079 2 2.2208 2.3395 29.0975 13.5218