ITEM: TIMESTEP
60000
ITEM: NUMBER OF ATOMS
17730
ITEM: BOX BOUNDS pp pp pp
-4.0045052933219755e-01 2.7740450529332762e+01
-4.9022651251604303e+00 3.3298226512516555e+02
-4.1281056773844377e-01 2.7752810567737612e+01
ITEM: ATOMS id type q x y z
1 2 2.2208 5.34386 0.887378 5.39838
2 1 -1.1104 1.14513 -3.33967 1.09048
6 1 -1.1104 1.12464 -3.42117 4.01014
10 1 -1.1104 1.07252 -0.541706 1.31251
12 2 2.2208 5.38817 -2.17912 2.67062
14 1 -1.1104 1.1746 -0.677217 4.08978
16 1 -1.1104 3.97921 -3.66223 1.27276
18 2 2.2208 2.47497 0.739905 2.63848
19 1 -1.1104 3.9348 -3.74779 3.89832
21 2 2.2208 2.4144 -2.05818 5.43991
23 1 -1.1104 3.9603 -0.789448 1.3607
24 1 -1.1104 3.86753 -0.610631 4.1577
3 1 -1.1104 0.988602 2.08832 1.26157
7 1 -1.1104 1.12058 2.11969 3.97571
13 2 2.2208 5.31635 3.42703 2.57409
17 1 -1.1104 3.92224 1.93602 1.31479
20 1 -1.1104 3.74373 2.1478 3.99547
22 2 2.2208 2.47254 3.4758 5.47187
359 2 2.2208 8.03106 6.35436 13.6919
25 2 2.2208 -0.230048 -2.08684 2.57923
26 2 2.2208 -0.0702669 0.703059 5.33274
232 2 2.2208 10.9773 -4.85982 10.8247
320 2 2.2208 8.13033 17.4234 8.15267
143 1 -1.1104 12.3633 13.3034 6.69972
387 2 2.2208 5.19764 6.33968 -0.264144
376 2 2.2208 2.68251 -2.05651 -0.165489
172 1 -1.1104 3.93207 -3.53517 6.67773
323 1 -1.1104 12.3441 15.942 9.54632
9 1 -1.1104 6.69661 2.07519 3.96648
5 1 -1.1104 6.66663 2.01606 1.20994
15 1 -1.1104 6.78222 -0.673875 4.03927
30 2 2.2208 -0.264826 -4.89152 5.40283
4 1 -1.1104 6.69279 -3.58667 1.22563
8 1 -1.1104 6.70744 -3.36843 4.01671
11 1 -1.1104 6.85914 -0.888565 1.15788
31 2 2.2208 10.9047 0.564318 5.29554
32 1 -1.1104 12.3697 -3.60107 1.07845
34 1 -1.1104 12.1923 -3.65537 3.87239
36 1 -1.1104 12.208 -0.747227 1.04647
37 2 2.2208 10.8739 -2.39568 2.32985
39 1 -1.1104 12.3633 -0.810429 3.73374
40 1 -1.1104 9.52848 -3.63011 0.983259
42 2 2.2208 8.25554 0.578663 2.49296
43 1 -1.1104 9.41768 -3.69215 3.72054
45 2 2.2208 8.06572 -2.15992 5.51396
47 1 -1.1104 9.47586 -0.692844 0.994853
48 1 -1.1104 9.51084 -0.783968 3.96701
33 1 -1.1104 12.4048 2.20408 1.01664
35 1 -1.1104 12.3269 1.98978 3.81864
41 1 -1.1104 9.61344 1.86206 1.24756
44 1 -1.1104 9.54734 1.81368 3.99468
46 2 2.2208 8.16588 3.43209 5.29075
38 2 2.2208 11.0416 3.23939 2.43433
205 1 -1.1104 12.46 -3.50779 6.65122
397 2 2.2208 5.17251 17.5984 -0.195509
210 1 -1.1104 9.58612 -0.899475 6.60449
209 1 -1.1104 9.38029 2.10565 6.85145
199 2 2.2208 -0.2811 3.5971 8.17332
311 2 2.2208 -0.270611 20.4087 8.09469
81 2 2.2208 -0.462668 6.33573 5.40302
54 2 2.2208 5.11774 6.40009 5.33771
56 1 -1.1104 0.886923 7.60607 1.09916
58 1 -1.1104 0.960753 7.70377 4.06261
60 1 -1.1104 1.12037 4.84655 1.21552
67 1 -1.1104 1.037 4.87453 3.9313
71 1 -1.1104 3.80155 7.71415 1.14628
72 2 2.2208 2.36059 6.15916 2.63858
74 1 -1.1104 3.77301 7.84067 3.80175
76 1 -1.1104 3.82763 4.92999 1.13112
79 1 -1.1104 3.73963 4.99862 4.12877
55 2 2.2208 5.20541 11.8496 5.26361
61 1 -1.1104 0.830256 10.5674 0.985576
66 2 2.2208 5.39384 9.11294 2.42254
68 1 -1.1104 1.06781 10.4946 3.81565
73 2 2.2208 2.45679 11.8634 2.32199
75 2 2.2208 2.43893 9.19796 5.33511
77 1 -1.1104 3.75976 10.2682 0.957334
80 1 -1.1104 3.93246 10.6249 3.78613
381 2 2.2208 -0.271465 0.841721 -0.294727
135 2 2.2208 -0.376028 14.7928 2.45699
393 2 2.2208 8.12305 9.14472 -0.306783
383 2 2.2208 8.26204 -2.27173 -0.277331
337 2 2.2208 13.6116 14.6837 5.23106
59 1 -1.1104 6.69529 7.6068 4.03759
57 1 -1.1104 6.77731 7.56613 1.13507
69 1 -1.1104 6.5865 4.94566 4.00818
70 1 -1.1104 6.76022 10.3444 3.65567
63 1 -1.1104 6.47253 4.68323 1.09546
64 1 -1.1104 6.66598 10.4675 1.02474
84 2 2.2208 10.9817 6.27485 5.29428
86 1 -1.1104 12.4037 7.71624 0.994408
87 1 -1.1104 12.3597 7.63426 3.81011
88 1 -1.1104 12.4045 4.90614 0.925302
92 1 -1.1104 12.3283 4.88613 4.08174
94 1 -1.1104 9.5392 7.62276 1.30954
95 2 2.2208 8.10119 6.37541 2.64185
97 1 -1.1104 9.76583 7.82566 4.08947
99 1 -1.1104 9.54067 4.61463 1.28
102 1 -1.1104 9.32999 4.97006 3.92428
85 2 2.2208 10.8588 11.7861 5.28839
89 1 -1.1104 12.4918 10.6901 0.967911
91 2 2.2208 11.0296 9.11212 2.3681
93 1 -1.1104 12.4062 10.5511 3.89984
96 2 2.2208 8.01433 11.8623 2.33882
98 2 2.2208 8.1709 9.07088 5.26852
100 1 -1.1104 9.54421 10.5303 1.0317
103 1 -1.1104 9.59887 10.5904 3.90314
290 1 -1.1104 6.50446 13.233 9.71791
269 1 -1.1104 9.58351 4.83668 6.49497
90 1 -1.1104 12.3546 10.5186 6.7479
266 1 -1.1104 12.4621 4.85729 6.89977
378 2 2.2208 10.9218 17.5228 -0.0563178
107 1 -1.1104 0.999415 13.3967 1.10849
113 1 -1.1104 0.802095 13.3538 3.93954
123 1 -1.1104 3.93757 13.1833 1.00426
128 1 -1.1104 3.79419 13.3789 3.79066
119 2 2.2208 5.30552 14.7629 2.55156
106 2 2.2208 5.32597 17.5909 5.31935
109 1 -1.1104 0.911981 19.0022 1.10373
114 1 -1.1104 0.9618 18.7045 3.82523
116 1 -1.1104 1.00911 16.2434 1.12614
120 2 2.2208 5.46771 20.2169 2.52576
121 1 -1.1104 1.09249 16.1252 3.87454
125 1 -1.1104 3.78508 18.9417 1.12387
127 2 2.2208 2.56041 17.5392 2.6614
129 1 -1.1104 3.99409 18.9189 3.98559
130 2 2.2208 2.45104 14.7186 5.23486
131 2 2.2208 2.48271 20.336 5.21372
132 1 -1.1104 3.7668 16.0658 1.21609
134 1 -1.1104 3.91447 16.0617 3.94933
324 2 2.2208 10.8342 20.3735 8.31044
318 1 -1.1104 9.47828 18.9173 9.562
317 2 2.2208 8.06296 14.6847 10.9
330 1 -1.1104 12.1075 13.1596 12.2282
138 1 -1.1104 6.71891 18.962 1.05244
110 1 -1.1104 6.62054 13.316 1.08238
83 2 2.2208 -0.388782 11.8277 5.20427
312 2 2.2208 -0.545212 17.5377 10.848
316 2 2.2208 8.13674 20.3815 10.9706
115 1 -1.1104 6.62937 13.2514 3.85914
140 1 -1.1104 6.53317 16.234 1.34617
122 1 -1.1104 6.84876 16.1339 3.94404
139 1 -1.1104 6.8537 18.9931 3.84507
142 1 -1.1104 12.1673 13.3635 0.834863
146 1 -1.1104 12.5192 13.3189 3.71522
153 1 -1.1104 9.43139 13.3345 1.09227
158 1 -1.1104 9.57312 13.2946 4.15607
160 2 2.2208 8.20332 14.56 5.38111
150 2 2.2208 10.9548 14.7815 2.50399
141 2 2.2208 11.0009 17.4671 5.40692
144 1 -1.1104 12.4549 18.9722 1.05469
147 1 -1.1104 12.3073 18.7318 3.88193
148 1 -1.1104 12.3545 16.0551 1.19642
151 2 2.2208 11.0995 20.3336 2.52413
152 1 -1.1104 12.1651 16.0706 4.00428
155 1 -1.1104 9.5929 19.0329 1.14441
157 2 2.2208 8.08453 17.5126 2.54913
159 1 -1.1104 9.55749 18.8492 3.89421
161 2 2.2208 8.1765 20.2036 5.36262
162 1 -1.1104 9.43249 16.0586 1.27857
164 1 -1.1104 9.55769 16.1265 4.04489
111 1 -1.1104 6.7563 13.421 6.8176
156 1 -1.1104 9.4459 18.7203 6.81965
149 1 -1.1104 12.5845 16.0448 6.84883
173 1 -1.1104 4.00863 2.22953 6.85007
398 2 2.2208 2.47079 14.732 -0.329827
174 1 -1.1104 3.7942 -0.725315 6.78552
167 1 -1.1104 1.2332 2.08085 6.78739
170 1 -1.1104 1.01068 -0.732689 6.89028
166 1 -1.1104 0.950651 -3.41985 6.79185
175 2 2.2208 5.36983 0.694952 10.8713
176 1 -1.1104 1.07542 -3.39602 12.2888
180 1 -1.1104 1.11077 -3.44109 9.55586
184 1 -1.1104 1.16402 -0.725521 12.4355
186 2 2.2208 5.11842 -2.04659 8.23078
188 1 -1.1104 1.06377 -0.851613 9.66253
190 1 -1.1104 3.74501 -3.49496 12.5218
192 2 2.2208 2.58469 0.779726 8.16978
193 1 -1.1104 3.76335 -3.50224 9.65293
195 2 2.2208 2.48255 -2.11836 10.8997
197 1 -1.1104 3.9863 -0.680894 12.1514
198 1 -1.1104 3.90635 -0.61488 9.52622
177 1 -1.1104 1.15073 2.13288 12.221
181 1 -1.1104 1.14758 2.0868 9.34116
191 1 -1.1104 3.80598 2.1979 12.4229
194 1 -1.1104 4.0614 2.1167 9.62728
187 2 2.2208 5.5884 3.60432 8.23848
196 2 2.2208 2.51571 3.57469 10.9205
200 2 2.2208 -0.328878 -2.03189 8.36412
388 2 2.2208 2.3813 9.14377 -0.286769
82 2 2.2208 -0.487826 9.03468 2.46436
168 1 -1.1104 6.9067 -3.41437 6.83669
208 1 -1.1104 9.70098 -3.66617 6.69063
206 1 -1.1104 12.2636 2.05641 6.80983
178 1 -1.1104 6.53662 -3.5395 12.4754
169 1 -1.1104 6.84823 2.18718 6.73894
171 1 -1.1104 6.73097 -0.648669 6.95063
185 1 -1.1104 6.72234 -0.937137 12.5518
179 1 -1.1104 6.7057 2.04465 12.1706
183 1 -1.1104 6.84736 2.07278 9.46465
207 1 -1.1104 12.2514 -0.699182 6.83953
182 1 -1.1104 6.64361 -3.55779 9.55059
189 1 -1.1104 6.70335 -0.65894 9.59004
211 2 2.2208 10.8903 0.628454 11.0267
212 1 -1.1104 12.3376 -3.53675 12.3311
214 1 -1.1104 12.4979 -3.75397 9.39029
216 1 -1.1104 12.3552 -0.735449 12.3959
217 2 2.2208 10.9365 -2.15815 8.21627
219 1 -1.1104 12.2742 -0.849374 9.60931
220 1 -1.1104 9.50584 -3.44831 12.3599
222 2 2.2208 8.33707 0.612947 8.18376
223 1 -1.1104 9.47234 -3.68776 9.45572
225 2 2.2208 7.93734 -2.28939 10.9506
227 1 -1.1104 9.47723 -0.86031 12.1622
228 1 -1.1104 9.39585 -0.895964 9.53945
213 1 -1.1104 12.3921 2.05818 12.3884
215 1 -1.1104 12.2352 1.972 9.53125
221 1 -1.1104 9.62336 1.97231 12.5772
224 1 -1.1104 9.58839 2.00223 9.58391
226 2 2.2208 8.11719 3.49191 10.9641
218 2 2.2208 10.8796 3.4534 8.14871
321 1 -1.1104 9.52484 18.705 12.3103
329 1 -1.1104 12.1732 18.9106 12.275
239 1 -1.1104 3.87252 5.06261 7.07034
234 1 -1.1104 1.03499 7.69403 6.86047
62 1 -1.1104 0.909018 10.3831 6.65689
78 1 -1.1104 3.88679 10.6978 6.76338
342 2 2.2208 -0.377805 11.9546 10.8933
344 2 2.2208 -0.478955 6.30326 11.0893
373 2 2.2208 5.41684 0.590155 -0.153456
238 1 -1.1104 3.85503 7.85716 6.78861
236 1 -1.1104 0.877895 5.00875 6.66521
240 2 2.2208 5.25046 6.3209 10.8175
242 1 -1.1104 1.1063 7.89049 12.525
244 1 -1.1104 1.03992 7.79206 9.57928
246 1 -1.1104 1.0733 5.24253 12.5332
251 1 -1.1104 1.01147 4.92768 9.61435
255 1 -1.1104 3.92132 7.81278 12.3084
256 2 2.2208 2.47296 6.5298 8.29867
258 1 -1.1104 3.90384 7.78189 9.66532
260 1 -1.1104 3.8815 5.02464 12.2978
262 1 -1.1104 3.83814 5.00911 9.5932
241 2 2.2208 5.08801 12.1293 11.2206
247 1 -1.1104 0.894306 10.6547 12.2936
250 2 2.2208 5.26813 9.25145 8.07428
252 1 -1.1104 1.0872 10.5254 9.4565
257 2 2.2208 2.50815 12.0534 8.16226
259 2 2.2208 2.44545 9.13913 11.0489
261 1 -1.1104 3.82429 10.7078 12.5035
263 1 -1.1104 4.15461 10.5932 9.55911
237 1 -1.1104 6.59497 5.06589 6.78
331 2 2.2208 10.8603 17.5263 10.8066
235 1 -1.1104 6.70017 7.92644 6.61428
65 1 -1.1104 6.58835 10.7479 6.64948
253 1 -1.1104 6.85005 4.9019 9.72009
254 1 -1.1104 6.85713 10.4817 9.5388
265 1 -1.1104 12.3111 7.61247 6.60383
101 1 -1.1104 9.46152 10.493 6.82438
245 1 -1.1104 6.72842 7.86678 9.37789
243 1 -1.1104 6.68936 7.71392 12.3109
267 1 -1.1104 9.46814 7.63215 6.64577
248 1 -1.1104 6.63881 4.96847 12.4737
249 1 -1.1104 6.65389 10.5732 12.2544
285 1 -1.1104 9.51847 7.58058 12.3093
280 1 -1.1104 12.3787 4.73134 12.4019
283 1 -1.1104 12.2514 4.8625 9.64353
268 1 -1.1104 9.32367 4.89666 9.40459
271 1 -1.1104 9.61757 4.70998 12.2759
273 1 -1.1104 9.4852 7.485 9.45837
275 2 2.2208 8.14784 6.31769 8.01588
276 2 2.2208 10.8488 6.19359 10.8668
278 1 -1.1104 12.1931 7.55747 12.3035
279 1 -1.1104 12.2715 7.76294 9.50568
284 1 -1.1104 12.2988 10.6608 9.64299
282 2 2.2208 10.8531 9.11649 8.18112
281 1 -1.1104 12.1697 10.4096 12.5121
264 1 -1.1104 9.65015 10.3563 9.48673
270 1 -1.1104 9.54024 10.4134 12.4344
272 2 2.2208 8.06557 8.98187 10.7624
274 2 2.2208 7.95781 11.762 8.27546
277 2 2.2208 10.7624 11.8233 10.8703
328 1 -1.1104 12.3102 13.1375 9.31935
302 1 -1.1104 0.918269 18.8453 6.70446
117 1 -1.1104 1.07928 15.9394 6.75905
336 2 2.2208 13.7183 20.343 5.31027
124 1 -1.1104 3.94832 13.4839 6.6394
389 2 2.2208 5.30357 11.8491 -0.419469
126 1 -1.1104 3.54721 19.1376 6.80278
108 1 -1.1104 1.22135 13.1252 6.80624
133 1 -1.1104 3.84285 16.3766 6.65995
305 1 -1.1104 3.8182 13.266 9.59386
299 1 -1.1104 0.924849 13.49 12.3837
287 1 -1.1104 3.64625 13.4453 12.4406
294 1 -1.1104 0.93042 13.2879 9.59102
310 2 2.2208 2.28724 14.795 10.842
309 2 2.2208 2.41599 20.2186 10.9688
308 1 -1.1104 3.70891 16.0409 12.2022
307 1 -1.1104 0.801197 16.1712 12.2607
292 1 -1.1104 0.957461 16.3532 9.68502
304 1 -1.1104 3.84314 16.0503 9.60944
303 2 2.2208 2.43444 17.5603 8.13601
301 1 -1.1104 3.98321 18.7923 9.51855
300 2 2.2208 5.32873 17.4626 10.8547
291 1 -1.1104 1.05658 19.05 9.55706
298 1 -1.1104 1.15503 18.7526 12.3651
295 2 2.2208 5.21749 14.6839 8.13515
286 1 -1.1104 3.96143 18.9049 12.4473
293 2 2.2208 5.14511 20.2623 8.10358
392 2 2.2208 10.9225 6.25115 -0.301174
315 1 -1.1104 9.33026 16.1031 12.1585
319 1 -1.1104 9.46459 13.1935 9.54225
327 1 -1.1104 12.1732 18.7694 9.37311
296 1 -1.1104 6.81546 18.852 12.2753
322 1 -1.1104 9.29966 13.3311 12.3729
297 1 -1.1104 6.53777 13.3673 12.5997
288 1 -1.1104 6.59105 19 9.41624
112 1 -1.1104 6.49258 19.0167 6.55777
289 1 -1.1104 6.67774 16.1315 9.42011
306 1 -1.1104 6.52682 16.2353 12.3127
325 2 2.2208 10.9735 14.5763 7.99476
326 1 -1.1104 12.3524 15.9181 12.2273
154 1 -1.1104 9.67931 13.1073 6.78999
314 1 -1.1104 9.54334 16.1833 9.45364
118 1 -1.1104 6.67442 16.0628 6.80725
145 1 -1.1104 12.3462 18.714 6.75518
163 1 -1.1104 9.55079 15.8394 6.63799
384 2 2.2208 8.0708 3.47907 -0.264969
201 2 2.2208 -0.312802 0.730101 11.0865
382 2 2.2208 10.8709 0.456156 -0.247051
377 2 2.2208 8.13055 14.717 -0.133245
313 2 2.2208 -0.423112 14.7218 7.97897
379 2 2.2208 8.2518 20.4475 -0.244291
229 2 2.2208 13.6931 0.687861 8.14689
49 2 2.2208 13.6799 0.653541 2.305
335 2 2.2208 13.64 9.05262 5.18549
341 2 2.2208 13.5868 9.11674 10.9938
338 2 2.2208 13.6652 3.49085 10.972
230 2 2.2208 13.7575 -2.26858 10.9405
380 2 2.2208 2.41546 3.2777 -0.105485
348 2 2.2208 2.45555 0.808263 13.6946
346 2 2.2208 -0.210223 -2.23265 13.6786
396 2 2.2208 2.53124 20.4439 -0.28196
364 2 2.2208 5.32621 20.3175 13.6735
400 2 2.2208 5.26583 0.837309 16.574
401 1 -1.1104 1.13328 -3.51771 18.1045
405 1 -1.1104 1.26064 -3.51816 15.2837
413 1 -1.1104 1.13808 -0.740983 18.1917
415 2 2.2208 5.4181 -2.09155 19.3556
417 1 -1.1104 0.872217 -0.650301 15.3975
421 1 -1.1104 3.82949 -3.5218 17.9483
423 2 2.2208 2.46006 0.666407 19.5034
424 1 -1.1104 4.14505 -3.67727 15.3688
428 2 2.2208 2.60589 -2.24198 16.5907
430 1 -1.1104 3.76976 -0.612969 17.8607
431 1 -1.1104 3.7668 -0.50743 15.0471
402 1 -1.1104 1.13942 2.1797 18.067
407 1 -1.1104 1.02333 2.26599 14.9893
416 2 2.2208 5.14945 3.4057 19.4922
422 1 -1.1104 3.83564 2.01992 18.0214
426 1 -1.1104 4.03207 2.41231 15.2625
429 2 2.2208 2.61548 3.78483 16.4888
437 2 2.2208 -0.281759 -2.13993 19.4827
511 2 2.2208 -0.20256 6.40119 16.6242
637 2 2.2208 -0.251446 0.675969 22.3608
627 2 2.2208 13.7243 20.4316 22.3618
361 2 2.2208 8.04082 11.8628 13.8112
408 1 -1.1104 1.15483 2.14687 20.8587
634 2 2.2208 2.69818 -4.85805 25.0592
347 2 2.2208 5.17552 -2.14365 13.8868
538 2 2.2208 13.5851 12.0039 19.5389
403 1 -1.1104 6.81377 -3.43191 18.0673
414 1 -1.1104 6.75157 -0.586266 17.9778
409 1 -1.1104 6.6837 -3.56999 15.1514
419 1 -1.1104 6.60133 -0.699956 15.3049
411 1 -1.1104 6.61497 2.19352 15.0294
404 1 -1.1104 6.65944 2.04977 18.0514
443 2 2.2208 10.956 0.636753 16.524
444 1 -1.1104 12.4054 -3.49541 17.9771
446 1 -1.1104 12.2571 -3.51398 15.3392
450 1 -1.1104 12.3042 -0.730049 17.9364
451 2 2.2208 10.8614 -2.1477 19.4428
453 1 -1.1104 12.2477 -0.754214 14.9778
455 1 -1.1104 9.65124 -3.68518 18.1398
457 2 2.2208 8.01993 0.666621 19.3572
458 1 -1.1104 9.64162 -3.38106 15.2092
462 2 2.2208 8.08784 -2.0102 16.6278
464 1 -1.1104 9.68353 -0.981097 17.9411
465 1 -1.1104 9.45217 -0.670158 15.1798
445 1 -1.1104 12.3193 2.18622 18.0173
448 1 -1.1104 12.306 2.05681 15.1331
456 1 -1.1104 9.53569 1.95805 18.0593
460 1 -1.1104 9.64984 2.13746 15.2603
463 2 2.2208 8.07965 3.63996 16.538
452 2 2.2208 10.7955 3.49868 19.4508
461 1 -1.1104 9.53713 2.04854 20.8008
369 2 2.2208 10.8692 14.677 13.6942
447 1 -1.1104 12.4005 -3.35783 20.6879
420 1 -1.1104 6.59391 -0.795888 20.8763
353 2 2.2208 10.8659 -2.14819 13.7788
349 2 2.2208 5.40928 3.66742 13.7561
350 2 2.2208 -0.243676 20.344 13.5846
476 2 2.2208 5.20548 6.37742 16.5415
478 1 -1.1104 1.13692 7.8463 17.9891
480 1 -1.1104 1.04503 7.80164 15.0858
484 1 -1.1104 1.29755 4.97823 17.8766
489 1 -1.1104 0.993716 4.9796 15.0734
497 1 -1.1104 3.82668 7.89777 17.8819
498 2 2.2208 2.31874 6.37534 19.4626
500 1 -1.1104 3.8897 7.88458 15.0526
503 1 -1.1104 3.88639 5.06794 18.0203
505 1 -1.1104 3.96499 5.13847 15.0883
477 2 2.2208 5.1186 11.8743 16.5068
485 1 -1.1104 1.13357 10.4932 17.8894
488 2 2.2208 5.24075 9.14047 19.3733
491 1 -1.1104 0.953025 10.5246 15.0696
499 2 2.2208 2.29799 11.7982 19.2892
502 2 2.2208 2.38839 9.21615 16.4314
504 1 -1.1104 3.75065 10.6413 17.7881
507 1 -1.1104 3.75109 10.5865 15.1863
435 2 2.2208 2.49616 -4.83739 19.3608
470 2 2.2208 8.12269 -4.88777 13.8611
490 1 -1.1104 1.08829 5.09569 20.8732
628 2 2.2208 10.8305 17.4267 22.348
366 2 2.2208 13.7644 6.28267 13.5901
487 1 -1.1104 6.52631 10.4166 17.8946
482 1 -1.1104 6.54236 7.71536 15.2578
486 1 -1.1104 6.55636 4.78963 17.9524
479 1 -1.1104 6.60376 7.71782 18.0305
493 1 -1.1104 6.85505 4.91888 15.3021
495 1 -1.1104 6.74898 10.5978 15.2826
512 2 2.2208 10.9007 6.30904 16.5232
514 1 -1.1104 12.0693 7.92596 18.079
515 1 -1.1104 12.2588 7.57524 15.0146
517 1 -1.1104 12.2608 4.8976 18.0247
520 1 -1.1104 12.2804 4.90404 15.2551
524 1 -1.1104 9.44908 7.56033 18.0469
525 2 2.2208 8.03021 6.34266 19.4642
527 1 -1.1104 9.44569 7.80495 15.1546
530 1 -1.1104 9.37307 4.80469 18.02
532 1 -1.1104 9.59718 4.99542 15.1423
513 2 2.2208 10.8653 11.9656 16.694
518 1 -1.1104 12.1143 10.6022 17.8943
519 2 2.2208 10.7925 9.11988 19.4272
522 1 -1.1104 12.1844 10.4053 15.158
526 2 2.2208 7.8749 11.9348 19.5875
529 2 2.2208 8.04253 9.1287 16.7212
531 1 -1.1104 9.36963 10.4131 18.2673
534 1 -1.1104 9.44164 10.3929 15.3521
718 1 -1.1104 9.51228 19.0986 26.4486
528 1 -1.1104 9.44358 7.77794 20.8888
516 1 -1.1104 12.1993 7.62235 20.762
521 1 -1.1104 12.1456 4.99978 20.7811
439 2 2.2208 2.51987 -4.88493 13.8055
717 1 -1.1104 9.33383 13.4828 26.3225
363 2 2.2208 2.38796 17.532 13.7491
540 1 -1.1104 0.821754 13.2682 18.0234
544 1 -1.1104 1.00644 13.4623 15.2369
560 1 -1.1104 3.62339 13.2723 18.0384
563 1 -1.1104 3.74538 13.4217 15.4274
554 2 2.2208 5.00937 14.6529 19.2209
539 2 2.2208 5.22396 17.5804 16.5184
541 1 -1.1104 1.12671 18.8975 18.0798
546 1 -1.1104 1.10505 18.934 15.1935
552 1 -1.1104 0.716084 16.0673 17.9326
555 2 2.2208 5.27232 20.0724 19.5414
556 1 -1.1104 0.938333 16.119 15.2085
561 1 -1.1104 3.8167 18.8275 18.1094
562 2 2.2208 2.42244 17.6035 19.499
565 1 -1.1104 3.79766 18.9935 15.2764
567 2 2.2208 2.17656 14.7256 16.6385
568 2 2.2208 2.50756 20.2689 16.5376
569 1 -1.1104 3.65676 16.1171 17.8956
570 1 -1.1104 3.80068 16.264 15.1745
357 2 2.2208 2.33393 12.0817 13.7412
352 2 2.2208 8.04802 0.808778 13.8641
733 1 -1.1104 6.60712 13.2573 23.6256
557 1 -1.1104 1.02883 16.1306 20.8391
549 1 -1.1104 6.57842 13.3194 20.8317
574 2 2.2208 -0.124624 3.47889 19.3634
598 1 -1.1104 9.48807 16.0478 20.832
559 1 -1.1104 6.70099 16.1261 20.9189
510 2 2.2208 13.7013 14.8002 16.6444
662 2 2.2208 10.8678 -4.92409 22.1336
548 1 -1.1104 6.58894 13.3152 15.2672
543 1 -1.1104 6.68013 18.9992 17.921
542 1 -1.1104 6.61846 13.2561 18.0207
553 1 -1.1104 6.58113 16.1606 17.8896
558 1 -1.1104 6.45366 16.2324 15.1463
550 1 -1.1104 6.61226 18.9191 15.1185
576 1 -1.1104 12.1912 13.35 18.103
578 1 -1.1104 12.5398 13.5522 14.9951
587 1 -1.1104 9.42341 13.3798 18.0133
590 1 -1.1104 9.40943 13.0976 15.15
594 2 2.2208 8.10305 14.6297 16.5222
583 2 2.2208 10.7425 14.7385 19.417
575 2 2.2208 10.7197 17.6157 16.499
577 1 -1.1104 12.2684 18.9801 18.1308
580 1 -1.1104 12.035 19.082 15.2445
582 1 -1.1104 12.012 16.2135 18.0021
584 2 2.2208 10.7799 20.2858 19.5328
585 1 -1.1104 12.126 16.2227 15.1815
588 1 -1.1104 9.41623 19.0103 17.9512
589 2 2.2208 7.91756 17.3977 19.4769
592 1 -1.1104 9.34695 18.6732 15.0773
595 2 2.2208 7.9743 20.2736 16.5976
596 1 -1.1104 9.28796 16.0972 18.0397
597 1 -1.1104 9.38799 15.9105 15.0452
635 1 -1.1104 12.0837 19.028 23.771
427 1 -1.1104 3.84369 1.92617 20.823
432 1 -1.1104 4.06899 -0.834134 20.6904
425 1 -1.1104 3.87044 -3.37414 20.7797
474 2 2.2208 -0.33395 20.6249 19.376
749 2 2.2208 -0.37497 14.692 24.9159
406 1 -1.1104 1.03248 -3.42272 20.7922
418 1 -1.1104 1.03398 -0.589278 20.9552
603 2 2.2208 5.31935 0.766731 22.3702
604 1 -1.1104 1.34036 -3.56467 23.475
608 1 -1.1104 1.21715 -3.20071 26.3801
612 1 -1.1104 1.25559 -0.714486 23.8347
614 2 2.2208 5.64927 -2.02026 25.0609
616 1 -1.1104 1.3926 -0.45041 26.8301
618 1 -1.1104 4.12632 -3.38592 23.8203
620 2 2.2208 2.75593 0.701479 25.0954
621 1 -1.1104 3.92715 -3.47453 26.4683
623 2 2.2208 2.53311 -1.99496 22.1651
625 1 -1.1104 3.89155 -0.682449 23.6283
626 1 -1.1104 4.07736 -0.655462 26.5149
605 1 -1.1104 1.08491 2.02237 23.8128
609 1 -1.1104 1.12504 2.16676 26.4027
619 1 -1.1104 3.94992 2.07335 23.6681
622 1 -1.1104 4.02257 1.85333 26.6243
624 2 2.2208 2.37241 3.52418 22.362
636 2 2.2208 -0.209993 -1.99909 25.1298
615 2 2.2208 5.36264 3.63386 25.1759
410 1 -1.1104 6.7162 -3.54755 20.9092
454 1 -1.1104 12.2687 -0.648431 20.7786
412 1 -1.1104 6.74416 2.03477 20.9452
459 1 -1.1104 9.47838 -3.60511 20.8244
466 1 -1.1104 9.31397 -0.714603 20.7855
617 1 -1.1104 6.87167 -0.742291 26.4125
613 1 -1.1104 6.60557 -0.529928 23.6619
611 1 -1.1104 6.97278 2.0278 26.606
449 1 -1.1104 12.3935 2.17187 20.7768
610 1 -1.1104 6.72263 -3.56695 26.4968
606 1 -1.1104 6.76721 -3.57447 23.6203
607 1 -1.1104 6.71442 2.14182 23.8538
639 2 2.2208 10.99 0.89312 22.1545
640 1 -1.1104 12.3028 -3.56685 23.553
642 1 -1.1104 12.3894 -3.41447 26.4054
644 1 -1.1104 12.4174 -0.596464 23.5802
645 2 2.2208 10.9118 -2.04038 24.9543
647 1 -1.1104 12.376 -0.855744 26.3608
648 1 -1.1104 9.50534 -3.3824 23.5712
650 2 2.2208 8.33952 0.663771 25.1414
651 1 -1.1104 9.43325 -3.66262 26.3455
653 2 2.2208 8.00808 -2.11279 22.1532
655 1 -1.1104 9.55122 -0.674046 23.6822
656 1 -1.1104 9.55769 -0.768402 26.4285
641 1 -1.1104 12.3566 2.0429 23.5189
643 1 -1.1104 12.3399 1.98183 26.3915
646 2 2.2208 10.9983 3.32359 25.0715
649 1 -1.1104 9.67513 2.03619 23.6031
652 1 -1.1104 9.52466 1.91789 26.5635
654 2 2.2208 8.13048 3.42454 22.4054
629 1 -1.1104 12.2479 13.451 23.5526
506 1 -1.1104 3.74962 4.47395 20.892
481 1 -1.1104 0.849898 7.69809 20.8497
492 1 -1.1104 0.76931 10.4659 20.7641
658 1 -1.1104 12.4418 18.7815 26.5676
399 2 2.2208 -0.403872 17.5278 27.85
442 2 2.2208 -0.489718 17.717 16.7417
501 1 -1.1104 3.8986 7.39045 20.8528
508 1 -1.1104 3.6132 10.3036 20.652
668 2 2.2208 5.28675 6.23564 22.3298
670 1 -1.1104 1.04345 7.59144 23.678
672 1 -1.1104 1.04455 7.83228 26.5604
674 1 -1.1104 1.18104 4.87636 23.838
679 1 -1.1104 1.21273 4.941 26.6137
683 1 -1.1104 3.863 7.74567 23.6092
684 2 2.2208 2.36647 6.22899 25.1211
686 1 -1.1104 3.86015 7.78217 26.48
688 1 -1.1104 3.93468 4.8854 23.7951
690 1 -1.1104 3.92511 4.782 26.5895
669 2 2.2208 5.21555 11.9827 22.2527
675 1 -1.1104 0.875841 10.4115 23.6689
678 2 2.2208 5.12776 9.05613 25.0457
680 1 -1.1104 0.981123 10.6441 26.3756
685 2 2.2208 2.41247 11.9299 24.8354
687 2 2.2208 2.51502 8.84402 22.1594
689 1 -1.1104 3.77392 10.5031 23.5785
691 1 -1.1104 3.91524 10.5743 26.4389
698 1 -1.1104 6.74346 18.8857 26.4944
726 1 -1.1104 6.53262 16.1517 26.6111
533 1 -1.1104 9.39261 4.84168 20.8538
676 1 -1.1104 6.61058 5.14988 23.7172
535 1 -1.1104 9.69093 10.5106 21.0122
496 1 -1.1104 6.63827 10.5375 21.0634
494 1 -1.1104 6.68268 4.82828 20.8762
671 1 -1.1104 6.77143 7.58816 23.5391
483 1 -1.1104 6.69043 7.71717 20.7198
523 1 -1.1104 12.4025 10.5065 20.8786
681 1 -1.1104 6.78205 4.80418 26.5122
673 1 -1.1104 6.5941 7.62122 26.4122
677 1 -1.1104 6.54894 10.457 23.6442
682 1 -1.1104 6.76691 10.5545 26.5942
700 1 -1.1104 9.52562 4.89995 26.5232
702 1 -1.1104 9.24784 4.88008 23.8437
704 1 -1.1104 9.55389 7.85828 26.5483
706 2 2.2208 8.14902 6.46078 25.1743
707 2 2.2208 10.8238 6.36042 22.3231
709 1 -1.1104 12.2963 7.76146 23.53
710 1 -1.1104 12.1097 7.77615 26.4355
711 1 -1.1104 12.2141 4.9644 23.8417
714 1 -1.1104 12.4569 4.75842 26.3244
716 1 -1.1104 9.48362 7.84293 23.7092
699 1 -1.1104 9.52905 10.6373 26.2384
701 1 -1.1104 9.35351 10.6038 23.6986
703 2 2.2208 8.07785 9.13609 22.3065
705 2 2.2208 8.03733 11.9622 24.9962
708 2 2.2208 10.8821 11.9541 22.2398
712 1 -1.1104 12.2987 10.5827 23.6886
713 2 2.2208 10.9228 9.18642 25.0744
715 1 -1.1104 12.3158 10.6552 26.4495
566 1 -1.1104 3.90968 18.7989 21.0212
436 2 2.2208 -0.180087 0.780603 16.6633
371 2 2.2208 7.89475 17.3641 13.632
372 2 2.2208 13.5035 17.3923 13.7905
564 1 -1.1104 3.78414 13.2434 20.7953
545 1 -1.1104 0.806776 13.2621 20.6504
547 1 -1.1104 1.09362 18.9915 20.8456
571 1 -1.1104 3.89725 16.0385 20.7867
725 1 -1.1104 3.84138 13.2886 23.6541
729 1 -1.1104 1.21602 13.3399 26.4239
735 1 -1.1104 1.03573 13.1975 23.4787
740 1 -1.1104 3.90642 13.567 26.3842
732 2 2.2208 5.20662 14.9076 25.0305
723 1 -1.1104 3.88508 18.9869 23.7595
727 1 -1.1104 0.80566 18.9817 26.4428
728 1 -1.1104 1.03092 16.3155 26.5044
731 2 2.2208 5.3201 20.3937 25.0865
734 1 -1.1104 0.983297 19.0633 23.632
736 2 2.2208 5.23557 17.5811 22.445
737 1 -1.1104 3.76829 19.0872 26.5406
738 2 2.2208 2.2533 17.7493 25.1261
739 1 -1.1104 3.72883 16.4606 26.4743
742 1 -1.1104 0.924203 16.038 23.6184
743 1 -1.1104 3.76822 16.2356 23.5085
744 2 2.2208 2.46899 20.4824 22.2898
745 2 2.2208 2.52895 14.7399 22.2104
741 1 -1.1104 6.68164 16.1919 23.6814
581 1 -1.1104 12.0763 18.8875 20.8676
721 2 2.2208 8.14067 20.2265 22.2055
579 1 -1.1104 12.2868 13.3117 20.8339
746 1 -1.1104 9.41258 16.1169 23.7957
719 2 2.2208 7.93514 14.7262 22.2327
692 1 -1.1104 12.085 16.1449 26.554
586 1 -1.1104 12.4677 16.1511 20.9919
695 2 2.2208 8.21988 17.6331 25.1421
693 1 -1.1104 9.3777 13.3886 23.5796
747 1 -1.1104 9.51336 16.2339 26.7392
667 2 2.2208 11.0115 20.4137 25.0886
694 1 -1.1104 9.3961 18.895 23.7099
664 2 2.2208 10.8707 14.7291 25.0497
551 1 -1.1104 6.52143 18.6911 20.8577
591 1 -1.1104 9.2505 13.3592 20.8652
593 1 -1.1104 9.36858 18.7994 21.0029
730 1 -1.1104 6.63339 18.9334 23.7611
724 1 -1.1104 6.66791 13.2767 26.3914
657 1 -1.1104 12.1884 13.417 26.2672
659 1 -1.1104 12.1839 16.1698 23.7438
696 2 2.2208 -0.471441 9.10278 25.0039
355 2 2.2208 2.58864 6.42515 13.6916
360 2 2.2208 10.9684 8.97057 13.7766
368 2 2.2208 10.7987 20.2492 13.672
367 2 2.2208 -0.378235 3.67008 13.7568
509 2 2.2208 13.6445 17.5926 19.4882
475 2 2.2208 13.6771 20.2445 16.5108
748 2 2.2208 -0.394128 17.5327 22.0825
573 2 2.2208 13.467 9.09069 16.6228
362 2 2.2208 13.4502 11.7894 13.7559
394 2 2.2208 10.9247 11.9892 27.686
356 2 2.2208 5.44901 9.13917 13.8006
354 2 2.2208 11.0629 3.48865 13.7526
391 2 2.2208 -0.316258 6.13762 27.8037
365 2 2.2208 5.13051 14.8122 13.8325
751 2 2.2208 5.38767 23.0084 5.35553
753 1 -1.1104 0.979993 24.5256 1.06598
754 1 -1.1104 1.10913 24.4928 3.86934
755 1 -1.1104 1.1122 21.7677 1.12675
757 2 2.2208 5.24954 25.9462 2.51907
758 1 -1.1104 0.96738 21.5359 3.90182
760 1 -1.1104 3.81049 24.5395 1.1742
761 2 2.2208 2.38064 23.1219 2.5261
763 1 -1.1104 3.65549 24.5354 3.96239
764 2 2.2208 2.53979 25.9082 5.20943
765 1 -1.1104 4.00364 21.6848 1.14526
766 1 -1.1104 3.84455 27.3102 0.960509
767 1 -1.1104 3.89602 21.801 3.97274
759 1 -1.1104 1.16503 27.323 3.77931
768 1 -1.1104 3.99761 27.2821 3.85414
756 1 -1.1104 1.09617 27.4962 0.944263
752 2 2.2208 5.45113 28.6555 5.21396
762 2 2.2208 2.61724 28.761 2.41925
1116 2 2.2208 10.8038 28.8324 -0.272676
1071 2 2.2208 -0.0746176 26.067 8.06088
1503 1 -1.1104 12.3579 47.1031 1.07667
1514 1 -1.1104 9.39642 47.0353 0.913656
1109 2 2.2208 5.31946 28.7215 -0.380055
1069 2 2.2208 13.6316 22.8711 8.30422
1125 2 2.2208 5.23468 45.675 -0.389629
1124 2 2.2208 10.9756 34.299 -0.399355
777 1 -1.1104 6.78286 27.3162 3.80881
773 1 -1.1104 6.74458 24.4539 3.90468
772 1 -1.1104 6.91073 24.4462 1.08487
776 1 -1.1104 6.78774 21.6054 3.88372
774 1 -1.1104 6.84483 21.8129 1.01691
775 1 -1.1104 6.76627 27.2157 1.08656
778 2 2.2208 10.9638 23.0229 5.32297
780 1 -1.1104 12.5078 24.5537 1.16561
781 1 -1.1104 12.2287 24.4915 4.09899
782 1 -1.1104 12.3107 21.7274 1.28931
783 1 -1.1104 12.3419 27.3993 1.27366
784 2 2.2208 10.9186 25.9826 2.45843
785 1 -1.1104 12.3904 21.7252 3.97045
787 1 -1.1104 9.74559 24.5425 1.05237
788 2 2.2208 8.23702 22.9333 2.44551
790 1 -1.1104 9.6095 24.4066 3.85543
791 2 2.2208 8.16516 25.8217 5.31323
792 1 -1.1104 9.77554 21.6577 1.18101
794 1 -1.1104 9.58641 21.7246 3.9991
786 1 -1.1104 12.2944 27.2073 3.98033
793 1 -1.1104 9.56897 27.2861 1.06263
795 1 -1.1104 9.62864 27.2735 3.63242
779 2 2.2208 10.8537 28.7022 5.24486
789 2 2.2208 8.13112 28.7808 2.32104
1689 1 -1.1104 9.49806 47.0121 6.70633
930 1 -1.1104 9.63469 27.3559 6.58858
770 2 2.2208 -0.180729 23.1148 5.22788
1461 1 -1.1104 1.09894 47.0934 1.07736
800 1 -1.1104 1.18876 30.098 1.04245
803 1 -1.1104 1.06907 30.1196 3.84034
806 1 -1.1104 1.28292 32.9001 1.0834
807 2 2.2208 5.36164 31.4523 2.44671
809 1 -1.1104 1.07949 32.9447 3.79137
811 1 -1.1104 4.06139 30.094 0.927378
814 1 -1.1104 3.78999 30.2787 3.80621
816 2 2.2208 2.59034 31.5421 5.36782
818 1 -1.1104 4.0121 32.8485 1.02397
819 1 -1.1104 3.97779 32.9064 3.72338
799 2 2.2208 5.37751 34.2034 5.23007
801 1 -1.1104 1.20832 35.8237 1.11779
804 1 -1.1104 1.27251 35.6193 3.88635
808 2 2.2208 5.50202 37.1991 2.48471
812 1 -1.1104 4.16651 35.6355 0.977959
813 2 2.2208 2.66942 34.3213 2.53449
815 1 -1.1104 4.14007 35.7441 3.94778
817 2 2.2208 2.60363 37.0728 5.24915
9916 2 2.2208 -0.266594 45.6491 5.19938
1108 2 2.2208 2.4487 25.9715 -0.384884
1054 2 2.2208 10.9455 42.7595 7.9582
957 1 -1.1104 3.9722 32.831 6.61025
949 1 -1.1104 1.33231 30.1057 6.77199
955 1 -1.1104 4.09103 30.0397 6.62853
1655 1 -1.1104 1.04754 47.3347 6.73522
805 1 -1.1104 6.88127 35.6221 3.74181
823 1 -1.1104 6.65465 30.2522 1.08848
802 1 -1.1104 6.8855 35.7406 0.930664
825 1 -1.1104 6.74085 32.945 1.02771
810 1 -1.1104 6.71456 32.9147 3.99462
824 1 -1.1104 6.56326 30.0524 3.79388
827 1 -1.1104 12.4693 30.1496 1.19274
829 1 -1.1104 12.2842 30.0738 3.93467
831 1 -1.1104 12.4531 32.8856 1.11619
832 2 2.2208 11.0625 31.632 2.49017
834 1 -1.1104 12.5185 32.9035 3.78491
835 1 -1.1104 9.31732 30.2697 1.13153
838 1 -1.1104 9.541 30.135 3.9327
840 2 2.2208 8.08977 31.5216 5.20089
842 1 -1.1104 9.71784 33.1155 1.04889
843 1 -1.1104 9.67925 33.1552 3.71205
826 2 2.2208 10.9263 34.4865 5.34621
828 1 -1.1104 12.2508 35.7028 1.04755
830 1 -1.1104 12.2817 35.9466 3.95586
833 2 2.2208 11.0441 37.2118 2.53408
836 1 -1.1104 9.51832 35.8844 0.977762
837 2 2.2208 8.22946 34.4191 2.43719
839 1 -1.1104 9.56856 35.8894 3.83846
841 2 2.2208 8.20218 37.2255 5.34078
1468 1 -1.1104 6.51957 47.3198 3.88021