ITEM: TIMESTEP
100000
ITEM: NUMBER OF ATOMS
17730
ITEM: BOX BOUNDS pp pp pp
-3.9756697682597453e-01 2.7737566976826741e+01
-4.7856275923286562e+00 3.3286562759233351e+02
-4.1121754697312252e-01 2.7751217546971915e+01
ITEM: ATOMS id type q x y z
1 2 2.2208 5.37216 0.797406 5.51942
2 1 -1.1104 1.16571 -3.27844 1.06519
6 1 -1.1104 1.25642 -3.22851 4.00676
10 1 -1.1104 1.15142 -0.467792 0.973514
12 2 2.2208 5.35566 -1.8485 2.73844
14 1 -1.1104 1.16198 -0.506787 3.99737
16 1 -1.1104 3.92636 -3.54651 1.49382
18 2 2.2208 2.52265 0.830544 2.59835
19 1 -1.1104 4.01507 -3.35949 4.03593
21 2 2.2208 2.52785 -1.78304 5.41969
23 1 -1.1104 3.9661 -0.669521 1.30235
24 1 -1.1104 4.03145 -0.504247 4.05716
3 1 -1.1104 1.09571 2.24622 1.12708
7 1 -1.1104 1.45184 2.19429 4.08629
13 2 2.2208 5.24867 3.72435 2.55508
17 1 -1.1104 3.92321 2.26663 1.17026
20 1 -1.1104 4.10059 2.29486 3.94333
22 2 2.2208 2.66341 3.73846 5.31383
27 2 2.2208 -0.2139 3.89071 2.47054
311 2 2.2208 -0.0911086 20.459 8.1257
25 2 2.2208 -0.0704345 -1.99199 2.52475
26 2 2.2208 -0.162669 1.00705 5.46218
83 2 2.2208 -0.227823 12.1716 5.26255
172 1 -1.1104 3.94311 -3.34675 6.82975
324 2 2.2208 11.0064 20.5306 8.10342
389 2 2.2208 5.47253 12.1591 -0.226563
200 2 2.2208 -0.331523 -1.98985 8.17746
312 2 2.2208 -0.184321 17.7431 10.9911
11 1 -1.1104 6.84786 -0.607476 1.15231
5 1 -1.1104 6.75162 2.14951 1.03224
4 1 -1.1104 6.52317 -3.52168 1.1804
15 1 -1.1104 6.76233 -0.564438 4.0718
9 1 -1.1104 6.79266 2.08453 3.89398
8 1 -1.1104 6.85156 -3.53046 4.11078
31 2 2.2208 11.0975 0.861722 5.24105
32 1 -1.1104 12.2617 -3.43482 0.990186
34 1 -1.1104 12.4225 -3.41536 3.82449
36 1 -1.1104 12.3491 -0.441225 0.996061
37 2 2.2208 10.9756 -1.94721 2.43766
39 1 -1.1104 12.3975 -0.816516 3.86819
40 1 -1.1104 9.41397 -3.22581 1.17596
42 2 2.2208 8.30314 0.791337 2.55052
43 1 -1.1104 9.7274 -3.43132 3.90084
45 2 2.2208 8.23352 -1.97378 5.22549
47 1 -1.1104 9.63875 -0.631527 1.11913
48 1 -1.1104 9.60404 -0.496293 4.08848
33 1 -1.1104 12.484 2.15446 1.01041
35 1 -1.1104 12.5217 2.1226 3.91859
41 1 -1.1104 9.82494 2.24771 0.994713
44 1 -1.1104 9.80766 2.25653 3.85434
46 2 2.2208 8.1709 3.49139 5.2666
38 2 2.2208 11.0794 3.57016 2.64762
387 2 2.2208 5.54988 6.63456 -0.311722
290 1 -1.1104 6.76603 13.3899 9.58887
49 2 2.2208 13.6183 0.772902 2.47424
205 1 -1.1104 12.2647 -3.37124 6.9038
207 1 -1.1104 12.547 -0.599807 6.53471
210 1 -1.1104 9.60662 -0.677776 6.84699
384 2 2.2208 8.19048 3.60368 -0.34734
28 2 2.2208 2.56243 -4.75724 2.78074
54 2 2.2208 5.31866 6.34526 5.24296
56 1 -1.1104 1.20665 7.91033 1.12992
58 1 -1.1104 1.20574 8.02027 3.80462
60 1 -1.1104 1.27673 5.20898 1.08844
67 1 -1.1104 1.2062 5.11958 3.79139
71 1 -1.1104 4.08072 8.02626 1.11039
72 2 2.2208 2.59086 6.64754 2.45727
74 1 -1.1104 3.98405 7.84275 3.94451
76 1 -1.1104 4.08382 5.2156 1.11071
79 1 -1.1104 3.99654 5.08486 3.84757
55 2 2.2208 5.35112 12.0726 5.46237
61 1 -1.1104 1.02549 10.6537 0.988699
66 2 2.2208 5.43381 9.27096 2.52922
68 1 -1.1104 1.01795 10.7431 3.82141
73 2 2.2208 2.41981 12.1932 2.58519
75 2 2.2208 2.64264 9.34467 5.16488
77 1 -1.1104 4.12139 10.6508 1.06738
80 1 -1.1104 3.87932 10.7497 3.835
388 2 2.2208 2.59788 9.37012 -0.211522
81 2 2.2208 -0.0827569 6.43705 5.38477
82 2 2.2208 -0.237412 9.16888 2.44019
331 2 2.2208 11.0421 17.7282 11.0606
398 2 2.2208 2.67634 14.8427 -0.402189
57 1 -1.1104 6.86883 7.86303 1.19128
70 1 -1.1104 6.82971 10.5115 4.06481
69 1 -1.1104 6.7279 5.11056 3.95495
63 1 -1.1104 6.87279 5.00343 1.13093
64 1 -1.1104 6.72845 10.706 1.16507
59 1 -1.1104 6.87592 7.80805 3.76547
84 2 2.2208 11.0615 6.29205 5.36652
86 1 -1.1104 12.483 7.68619 1.02113
87 1 -1.1104 12.319 7.9384 3.77678
88 1 -1.1104 12.5249 4.95104 1.03349
92 1 -1.1104 12.3387 5.02905 4.10129
94 1 -1.1104 9.71488 7.76156 1.31001
95 2 2.2208 8.05221 6.37806 2.48505
97 1 -1.1104 9.56854 7.733 3.98635
99 1 -1.1104 9.62345 5.0108 1.04565
102 1 -1.1104 9.4861 4.95828 3.78019
85 2 2.2208 10.985 12.0336 5.24602
89 1 -1.1104 12.3591 10.6058 1.10088
91 2 2.2208 10.975 9.26877 2.46617
93 1 -1.1104 12.3548 10.5643 3.831
96 2 2.2208 8.08903 12.0065 2.59729
98 2 2.2208 8.18818 9.06742 5.26598
100 1 -1.1104 9.53051 10.6095 0.974766
103 1 -1.1104 9.50278 10.5951 3.74991
391 2 2.2208 -0.238999 6.55649 -0.419255
381 2 2.2208 -0.325908 0.876502 -0.305423
266 1 -1.1104 12.6123 4.98524 6.89325
90 1 -1.1104 12.5327 10.6788 6.67138
267 1 -1.1104 9.54061 7.63976 6.72571
390 2 2.2208 -0.190799 12.3593 -0.390751
394 2 2.2208 11.1017 12.0892 -0.288298
380 2 2.2208 2.5455 3.82607 -0.191926
399 2 2.2208 -0.112222 17.472 -0.402732
107 1 -1.1104 1.33727 13.6513 1.00725
113 1 -1.1104 1.02001 13.4427 3.89421
123 1 -1.1104 3.98409 13.4618 1.29118
128 1 -1.1104 3.91119 13.3944 3.99343
119 2 2.2208 5.44746 14.845 2.67794
106 2 2.2208 5.50918 17.7161 5.2764
109 1 -1.1104 1.38169 19.0649 1.17431
114 1 -1.1104 1.17484 19.1736 3.88364
116 1 -1.1104 1.11329 16.2088 0.946674
120 2 2.2208 5.5219 20.4502 2.42065
121 1 -1.1104 1.26316 16.4524 3.78817
125 1 -1.1104 4.16298 19.0668 1.24637
127 2 2.2208 2.64293 17.7893 2.56058
129 1 -1.1104 4.18224 19.1851 3.96813
130 2 2.2208 2.51421 15.0592 5.51863
131 2 2.2208 2.59306 20.5847 5.14314
132 1 -1.1104 4.0086 16.3697 0.911978
134 1 -1.1104 3.99531 16.2661 3.92463
133 1 -1.1104 3.89403 16.4122 6.93111
135 2 2.2208 -0.198728 14.9216 2.41781
117 1 -1.1104 0.921253 16.2493 6.79088
138 1 -1.1104 6.99716 18.9916 1.01931
122 1 -1.1104 6.79341 16.1503 3.85162
137 2 2.2208 -0.301627 17.7494 5.30166
316 2 2.2208 8.24308 20.4775 10.9494
124 1 -1.1104 3.94701 13.6617 6.91289
396 2 2.2208 2.65406 20.4318 -0.326356
115 1 -1.1104 6.71631 13.3108 4.1597
139 1 -1.1104 6.97278 19.0462 3.77788
140 1 -1.1104 6.77995 16.0009 1.04857
110 1 -1.1104 6.85437 13.2887 1.03813
142 1 -1.1104 12.3948 13.546 1.11484
146 1 -1.1104 12.3098 13.3142 3.81892
153 1 -1.1104 9.65931 13.4079 0.978093
158 1 -1.1104 9.57626 13.4698 3.94636
160 2 2.2208 8.20018 14.9875 5.36424
150 2 2.2208 11.0654 14.9444 2.59462
141 2 2.2208 11.0955 17.9137 5.38944
144 1 -1.1104 12.496 19.2894 1.11584
147 1 -1.1104 12.5356 19.0341 3.97281
148 1 -1.1104 12.1703 16.5119 1.21765
151 2 2.2208 11.096 20.4063 2.49484
152 1 -1.1104 12.4866 16.205 3.88601
155 1 -1.1104 9.68423 19.0437 1.07911
157 2 2.2208 8.19367 17.5118 2.41487
159 1 -1.1104 9.81337 19.2036 3.8247
161 2 2.2208 8.32965 20.6128 5.20432
162 1 -1.1104 9.39725 16.2494 1.04761
164 1 -1.1104 9.55439 16.4668 3.98734
377 2 2.2208 8.20929 14.8542 -0.336406
136 2 2.2208 -0.203576 20.4025 2.41326
379 2 2.2208 8.52908 20.4252 -0.329484
321 1 -1.1104 9.65081 19.1786 12.4651
174 1 -1.1104 4.14221 -0.522239 6.7923
167 1 -1.1104 1.39064 2.25228 6.84404
166 1 -1.1104 0.952682 -3.43649 6.76444
199 2 2.2208 -0.223846 3.60972 8.31588
173 1 -1.1104 4.19399 2.25084 6.81003
170 1 -1.1104 1.03271 -0.567506 6.75026
201 2 2.2208 -0.0793717 0.842369 11.0522
175 2 2.2208 5.45984 0.827377 10.8811
176 1 -1.1104 1.28057 -3.26765 12.2093
180 1 -1.1104 1.11929 -3.48294 9.36084
184 1 -1.1104 1.26422 -0.406207 12.3119
186 2 2.2208 5.47228 -2.11307 8.19261
188 1 -1.1104 1.10978 -0.669241 9.54679
190 1 -1.1104 4.18911 -3.52543 12.437
192 2 2.2208 2.53236 0.76609 8.32053
193 1 -1.1104 3.90842 -3.39516 9.72759
195 2 2.2208 2.57188 -1.91232 10.9338
197 1 -1.1104 4.02291 -0.650946 12.291
198 1 -1.1104 4.05031 -0.715049 9.62532
177 1 -1.1104 1.29816 2.2241 12.46
181 1 -1.1104 1.06084 2.15021 9.65608
191 1 -1.1104 4.07862 2.21404 12.3371
194 1 -1.1104 3.95031 2.21466 9.5721
187 2 2.2208 5.53152 3.64465 8.13497
196 2 2.2208 2.64355 3.59271 11.0641
328 1 -1.1104 12.4251 13.5205 9.53606
325 2 2.2208 10.9317 14.9504 8.20421
169 1 -1.1104 6.88527 2.30069 6.75381
209 1 -1.1104 9.62218 2.26398 6.56002
319 1 -1.1104 9.69769 13.5167 9.43696
171 1 -1.1104 6.9148 -0.52325 6.86474
168 1 -1.1104 6.76681 -3.51142 6.56428
208 1 -1.1104 9.5173 -3.41306 6.61529
179 1 -1.1104 6.62961 2.34434 12.3081
185 1 -1.1104 6.73958 -0.60484 12.2186
183 1 -1.1104 6.87639 2.24806 9.52192
189 1 -1.1104 6.72467 -0.549426 9.57033
182 1 -1.1104 6.89993 -3.46809 9.50714
206 1 -1.1104 12.5071 2.16671 6.78523
178 1 -1.1104 6.8998 -3.55185 12.2305
211 2 2.2208 11.1678 0.792718 10.9934
212 1 -1.1104 12.4608 -3.12722 12.52
214 1 -1.1104 12.4999 -3.41802 9.55503
216 1 -1.1104 12.5119 -0.454579 12.2453
217 2 2.2208 11.0342 -2.02967 8.16051
219 1 -1.1104 12.4258 -0.588041 9.47672
220 1 -1.1104 9.73999 -3.45858 12.455
222 2 2.2208 8.32557 0.763761 8.11559
223 1 -1.1104 9.71972 -3.3066 9.60686
225 2 2.2208 8.34053 -1.96556 10.9579
227 1 -1.1104 9.52257 -0.775035 12.3903
228 1 -1.1104 9.65977 -0.596787 9.62942
213 1 -1.1104 12.4265 2.42048 12.214
215 1 -1.1104 12.5177 2.17207 9.3878
221 1 -1.1104 9.57741 2.17077 12.3692
224 1 -1.1104 9.7409 2.18622 9.62705
218 2 2.2208 11.107 3.64831 8.18563
226 2 2.2208 8.34437 3.50066 10.8894
330 1 -1.1104 12.6627 13.5932 12.4092
62 1 -1.1104 1.33638 10.9427 6.64274
236 1 -1.1104 1.27433 5.01127 6.82141
344 2 2.2208 -0.123099 6.48864 10.8274
78 1 -1.1104 3.96584 10.6898 6.59796
238 1 -1.1104 4.00585 7.87581 6.70762
234 1 -1.1104 1.37712 7.94827 6.5572
239 1 -1.1104 3.97649 5.16497 6.62245
240 2 2.2208 5.41043 6.45055 10.9559
242 1 -1.1104 1.37025 7.68391 12.1526
244 1 -1.1104 1.00709 7.93073 9.34614
246 1 -1.1104 1.26099 5.01843 12.2823
251 1 -1.1104 1.27766 5.03818 9.5192
255 1 -1.1104 4.18073 7.99802 12.157
256 2 2.2208 2.59808 6.38705 8.13284
258 1 -1.1104 3.93177 7.98287 9.46858
260 1 -1.1104 3.89684 5.22909 12.2873
262 1 -1.1104 4.0442 5.00739 9.53621
241 2 2.2208 5.42794 12.128 10.8814
247 1 -1.1104 1.39428 10.4793 12.3488
250 2 2.2208 5.35799 9.14594 8.01725
252 1 -1.1104 1.28742 10.9228 9.68541
257 2 2.2208 2.68169 12.2266 8.25608
259 2 2.2208 2.60798 9.24361 10.8136
261 1 -1.1104 4.03986 10.7032 12.3693
263 1 -1.1104 3.9068 10.8956 9.48688
342 2 2.2208 -0.297199 12.1057 10.9702
343 2 2.2208 0.019448 9.41125 7.87965
237 1 -1.1104 6.70006 4.8961 6.74491
65 1 -1.1104 6.82328 10.4991 6.7241
101 1 -1.1104 9.60142 10.5401 6.54678
235 1 -1.1104 6.82918 7.73645 6.60784
243 1 -1.1104 6.70899 7.80047 12.2394
254 1 -1.1104 6.52928 10.5238 9.47282
253 1 -1.1104 6.98302 4.98308 9.64849
249 1 -1.1104 6.8908 10.6879 12.3935
269 1 -1.1104 9.65335 5.07663 6.8291
248 1 -1.1104 6.76703 5.16132 12.3304
265 1 -1.1104 12.6772 7.94781 6.78342
245 1 -1.1104 6.68334 7.6967 9.35109
285 1 -1.1104 9.61773 7.7425 12.3982
280 1 -1.1104 12.4454 5.25701 12.3786
283 1 -1.1104 12.4726 5.11033 9.53281
268 1 -1.1104 9.79689 5.05188 9.45753
271 1 -1.1104 9.75793 4.81755 12.3537
273 1 -1.1104 9.58186 7.9746 9.66907
275 2 2.2208 8.24405 6.36521 8.1183
276 2 2.2208 11.011 6.35803 10.8907
278 1 -1.1104 12.4123 7.98411 12.2894
279 1 -1.1104 12.2268 7.67836 9.37994
284 1 -1.1104 12.2783 10.4972 9.52535
282 2 2.2208 10.9829 9.15099 8.09236
281 1 -1.1104 12.293 10.7875 12.3889
264 1 -1.1104 9.35543 10.6793 9.47656
270 1 -1.1104 9.79107 10.5063 12.1981
272 2 2.2208 8.09798 9.07533 11.0167
274 2 2.2208 8.28168 11.9834 7.95757
277 2 2.2208 11.0808 12.0328 10.8561
373 2 2.2208 5.41176 0.877147 -0.132779
126 1 -1.1104 4.05008 19.1115 6.72601
313 2 2.2208 -0.381677 14.9487 8.16836
302 1 -1.1104 1.28749 19.0802 6.83875
108 1 -1.1104 1.03893 13.6107 6.69303
397 2 2.2208 5.69403 17.5709 -0.379663
305 1 -1.1104 3.8974 13.6394 9.60463
299 1 -1.1104 0.983074 13.569 12.2532
287 1 -1.1104 3.84735 13.6535 12.6029
294 1 -1.1104 1.10827 13.6751 9.46067
310 2 2.2208 2.45862 14.8409 11.0728
309 2 2.2208 2.74717 20.5823 10.9799
308 1 -1.1104 4.02357 16.551 12.349
307 1 -1.1104 1.16985 16.3555 12.3116
292 1 -1.1104 1.03963 16.4037 9.7241
304 1 -1.1104 3.93154 16.2454 9.53
303 2 2.2208 2.37376 17.6705 8.23395
301 1 -1.1104 3.92231 19.1322 9.47908
300 2 2.2208 5.38539 17.764 10.8866
291 1 -1.1104 1.10661 19.3504 9.6422
298 1 -1.1104 1.44743 19.0399 12.2465
295 2 2.2208 5.34572 15.1046 8.11055
286 1 -1.1104 3.98431 19.2903 12.2234
293 2 2.2208 5.31537 20.3634 8.04418
112 1 -1.1104 6.96868 19.1639 6.52571
318 1 -1.1104 9.64997 19.1907 9.72258
145 1 -1.1104 12.5812 19.1194 6.67859
317 2 2.2208 8.37824 14.7913 11.116
314 1 -1.1104 9.67806 16.2942 9.68303
320 2 2.2208 8.25241 17.668 8.23561
306 1 -1.1104 6.90557 16.4502 12.5078
118 1 -1.1104 6.79463 16.478 6.64605
149 1 -1.1104 12.5122 16.3437 6.75402
296 1 -1.1104 6.73392 18.8494 12.4132
326 1 -1.1104 12.4666 16.362 12.6402
297 1 -1.1104 6.82055 13.6904 12.3789
329 1 -1.1104 12.3675 19.2906 12.2281
111 1 -1.1104 6.94797 13.4621 6.73525
323 1 -1.1104 12.344 16.2808 9.54687
289 1 -1.1104 7.01059 16.3462 9.67036
288 1 -1.1104 6.67457 19.0499 9.48773
322 1 -1.1104 9.56148 13.3471 12.456
156 1 -1.1104 9.49782 19.251 6.73193
154 1 -1.1104 9.66877 13.4622 6.70816
163 1 -1.1104 9.47265 16.4022 6.84033
143 1 -1.1104 12.3729 13.5207 6.73874
315 1 -1.1104 9.70419 16.163 12.4091
327 1 -1.1104 12.3463 18.9676 9.43637
232 2 2.2208 10.8801 -4.69135 10.9915
51 2 2.2208 8.26126 -4.72942 2.64871
352 2 2.2208 8.16813 0.877374 13.6658
376 2 2.2208 2.50469 -1.9754 -0.10766
364 2 2.2208 5.54844 20.466 13.5534
393 2 2.2208 8.32062 9.19612 -0.169773
363 2 2.2208 2.71789 17.7868 13.5939
383 2 2.2208 7.96602 -2.00075 -0.259598
392 2 2.2208 10.9333 6.23507 -0.316299
400 2 2.2208 5.36634 0.86291 16.6688
401 1 -1.1104 1.23751 -3.49337 18.0817
405 1 -1.1104 1.29413 -3.34955 15.1425
413 1 -1.1104 1.16362 -0.618336 17.8889
415 2 2.2208 5.37006 -2.05412 19.5439
417 1 -1.1104 1.24147 -0.649297 15.0314
421 1 -1.1104 4.10908 -3.43877 18.0619
423 2 2.2208 2.71865 0.801722 19.3784
424 1 -1.1104 4.08311 -3.22972 15.2042
428 2 2.2208 2.64268 -1.88946 16.7233
430 1 -1.1104 4.09359 -0.656402 18.202
431 1 -1.1104 4.07923 -0.605626 15.3816
402 1 -1.1104 1.33348 2.42261 18.1839
407 1 -1.1104 1.34534 2.12939 15.3567
422 1 -1.1104 4.14156 2.12233 18.1708
426 1 -1.1104 4.10529 2.30969 15.3144
429 2 2.2208 2.74368 3.52545 16.7914
427 1 -1.1104 4.05496 2.20433 20.7517
574 2 2.2208 -0.16608 3.82339 19.445
436 2 2.2208 -0.229086 0.900939 16.7512
437 2 2.2208 -0.297803 -1.99671 19.5233
349 2 2.2208 5.34544 3.64659 13.8165
369 2 2.2208 11.0504 14.9551 13.9101
416 2 2.2208 5.53269 3.71755 19.2568
664 2 2.2208 11.1357 14.8866 25.0098
748 2 2.2208 -0.0974138 17.6466 22.149
406 1 -1.1104 1.16811 -3.3723 20.7591
633 2 2.2208 5.36075 -4.72025 22.2579
350 2 2.2208 -0.0479243 20.7087 13.6661
354 2 2.2208 11.1581 3.62603 13.8498
747 1 -1.1104 9.73754 16.3423 26.4203
419 1 -1.1104 6.99551 -0.712414 14.9961
403 1 -1.1104 6.87793 -3.36068 17.977
414 1 -1.1104 6.77206 -0.736469 17.966
433 2 2.2208 -0.273607 -4.72598 16.569
404 1 -1.1104 6.87927 2.22868 17.9324
411 1 -1.1104 6.79466 2.19222 15.0139
409 1 -1.1104 6.91266 -3.39824 15.0341
443 2 2.2208 11.1666 0.873529 16.5232
444 1 -1.1104 12.4571 -3.5605 18.0144
446 1 -1.1104 12.4957 -3.45867 15.3791
450 1 -1.1104 12.6182 -0.612503 18.0692
451 2 2.2208 11.1629 -1.98197 19.3219
453 1 -1.1104 12.5289 -0.856906 15.368
455 1 -1.1104 9.68892 -3.33874 18.0088
457 2 2.2208 8.17219 0.73323 19.3276
458 1 -1.1104 9.56698 -3.20886 15.2161
462 2 2.2208 8.16139 -2.06974 16.6007
464 1 -1.1104 9.81955 -0.672287 17.9885
465 1 -1.1104 9.66644 -0.340329 15.1594
445 1 -1.1104 12.5355 2.27144 17.7783
448 1 -1.1104 12.4123 2.0828 15.0895
456 1 -1.1104 9.56559 2.28978 17.7974
460 1 -1.1104 9.78125 2.19911 14.9734
452 2 2.2208 10.9193 3.90859 19.3085
463 2 2.2208 8.41412 3.56805 16.4979
365 2 2.2208 5.48376 15.1019 13.8761
410 1 -1.1104 6.7925 -3.26662 20.9417
442 2 2.2208 0.00104421 17.8776 16.5855
537 2 2.2208 -0.223035 12.1617 16.6381
581 1 -1.1104 12.3904 19.2601 20.5516
476 2 2.2208 5.46545 6.4522 16.5419
478 1 -1.1104 1.17396 7.83445 18.0583
480 1 -1.1104 1.24235 7.54665 15.2058
484 1 -1.1104 1.34383 5.19139 17.9598
489 1 -1.1104 1.18307 4.86787 15.1856
497 1 -1.1104 4.06962 7.94405 18.0341
498 2 2.2208 2.69068 6.46627 19.4995
500 1 -1.1104 4.24874 7.82719 15.1009
503 1 -1.1104 4.00683 5.0533 17.9206
505 1 -1.1104 4.22286 5.19896 15.3273
477 2 2.2208 5.48494 12.1115 16.6601
485 1 -1.1104 1.17734 10.5372 17.941
488 2 2.2208 5.37593 9.35536 19.4668
491 1 -1.1104 1.18161 10.6521 15.1757
499 2 2.2208 2.66491 12.1092 19.3645
502 2 2.2208 2.66787 9.30914 16.4497
504 1 -1.1104 3.9988 10.6146 18.0692
507 1 -1.1104 4.01289 10.64 15.1323
536 2 2.2208 -0.28344 9.17538 19.4119
357 2 2.2208 2.55805 12.1516 13.8646
356 2 2.2208 5.44919 9.32235 13.7506
511 2 2.2208 -0.204167 6.31341 16.7371
693 1 -1.1104 9.69399 13.4467 23.6563
667 2 2.2208 11.2226 20.3956 24.7915
629 1 -1.1104 12.6634 13.5264 23.5738
482 1 -1.1104 6.85711 7.8122 15.175
479 1 -1.1104 6.76963 7.92268 17.9234
493 1 -1.1104 7.04042 4.99212 15.1719
495 1 -1.1104 6.9177 10.8339 15.2257
487 1 -1.1104 6.72141 10.8228 18.1031
486 1 -1.1104 6.90879 5.09348 17.9121
512 2 2.2208 11.0742 6.6635 16.7099
514 1 -1.1104 12.5862 8.0316 17.8741
515 1 -1.1104 12.3202 7.97257 15.0747
517 1 -1.1104 12.3381 5.26415 18.0369
520 1 -1.1104 12.5784 4.92359 15.248
524 1 -1.1104 9.9139 8.14071 18.0558
525 2 2.2208 8.11773 6.60121 19.1987
527 1 -1.1104 9.71945 7.95998 15.2764
530 1 -1.1104 9.54651 5.10705 17.7941
532 1 -1.1104 9.76905 5.05066 15.1382
513 2 2.2208 10.9912 12.1468 16.6644
518 1 -1.1104 12.4103 10.7329 18.1107
519 2 2.2208 11.0825 9.35167 19.3847
522 1 -1.1104 12.4817 10.6949 15.2088
526 2 2.2208 8.31557 12.0442 19.348
529 2 2.2208 8.18097 9.37049 16.5013
531 1 -1.1104 9.67479 10.8475 18.0222
534 1 -1.1104 9.55632 10.8331 15.1278
470 2 2.2208 8.11719 -4.81 13.7855
346 2 2.2208 -0.293687 -1.98905 13.8394
360 2 2.2208 11.0165 9.36441 13.7833
540 1 -1.1104 1.35675 13.3874 17.8404
544 1 -1.1104 1.18574 13.7387 15.1101
560 1 -1.1104 4.24092 13.5609 17.9883
563 1 -1.1104 4.00171 13.3117 15.2053
554 2 2.2208 5.58449 14.9126 19.4613
539 2 2.2208 5.46458 17.7149 16.5881
541 1 -1.1104 1.44428 18.9521 17.9065
546 1 -1.1104 1.38847 19.3953 15.0528
552 1 -1.1104 1.45341 16.194 18.1046
555 2 2.2208 5.36851 20.6132 19.3394
556 1 -1.1104 1.51061 16.7002 15.2434
561 1 -1.1104 4.11032 19.0944 17.9103
562 2 2.2208 2.68691 17.5737 19.4445
565 1 -1.1104 4.01533 18.9476 15.0665
567 2 2.2208 2.60133 14.9209 16.4064
568 2 2.2208 2.71435 20.4079 16.4928
569 1 -1.1104 4.25917 16.3005 17.9423
570 1 -1.1104 3.92683 16.1001 15.08
545 1 -1.1104 1.46611 13.314 20.8225
473 2 2.2208 -0.00583633 14.8902 19.3534
635 1 -1.1104 12.45 18.9508 23.4259
382 2 2.2208 10.883 0.769719 27.7558
351 2 2.2208 -0.098858 15.081 13.6654
378 2 2.2208 11.1597 17.9161 27.7704
746 1 -1.1104 9.90406 16.1 23.4239
468 2 2.2208 11.0582 -4.80365 16.6336
548 1 -1.1104 6.99126 13.4285 15.3351
553 1 -1.1104 7.18268 16.4686 17.9386
550 1 -1.1104 6.86184 19.3334 15.1757
543 1 -1.1104 6.80352 19.3546 17.8851
558 1 -1.1104 6.72964 16.3005 15.2799
542 1 -1.1104 7.03487 13.5319 18.0664
576 1 -1.1104 12.4575 13.47 17.9553
578 1 -1.1104 12.3852 13.4679 15.1885
587 1 -1.1104 9.66748 13.574 18.0071
590 1 -1.1104 9.72233 13.6563 15.2459
594 2 2.2208 8.32597 14.9659 16.5877
583 2 2.2208 11.0811 14.8429 19.4506
575 2 2.2208 11.0165 17.8348 16.6824
577 1 -1.1104 12.5019 19.194 17.835
580 1 -1.1104 12.3944 19.2027 14.9994
582 1 -1.1104 12.3273 16.3421 18.0877
584 2 2.2208 10.9785 20.5792 19.4775
585 1 -1.1104 12.6051 16.1884 15.3569
588 1 -1.1104 9.56053 19.2261 18.0122
589 2 2.2208 8.24546 17.8052 19.4253
592 1 -1.1104 9.74783 19.3526 15.316
595 2 2.2208 8.33285 20.6117 16.5938
596 1 -1.1104 9.64445 16.5221 18.0389
597 1 -1.1104 9.5817 16.6723 15.15
368 2 2.2208 10.988 20.6088 13.7769
598 1 -1.1104 9.61931 16.2703 20.5464
631 2 2.2208 -0.29993 -4.55621 22.0911
425 1 -1.1104 3.9049 -3.27994 20.8971
432 1 -1.1104 4.02234 -0.575863 20.798
634 2 2.2208 2.5498 -4.71337 25.1606
718 1 -1.1104 9.88885 19.0444 26.3783
418 1 -1.1104 1.28008 -0.624308 20.7696
408 1 -1.1104 1.36949 2.22222 20.8556
636 2 2.2208 -0.233304 -1.90286 24.9703
638 2 2.2208 -0.201337 3.64229 24.9509
603 2 2.2208 5.5899 0.960033 22.105
604 1 -1.1104 1.22933 -3.43767 23.7008
608 1 -1.1104 1.12 -3.39517 26.5152
612 1 -1.1104 1.14827 -0.574085 23.5741
614 2 2.2208 5.34453 -2.08844 25.1692
616 1 -1.1104 1.2079 -0.548034 26.3971
618 1 -1.1104 4.03821 -3.59217 23.8114
620 2 2.2208 2.59124 0.69275 25.1144
621 1 -1.1104 3.85585 -3.52598 26.5871
623 2 2.2208 2.67366 -1.89409 22.1819
625 1 -1.1104 4.09525 -0.707007 23.7593
626 1 -1.1104 3.88411 -0.878889 26.4215
605 1 -1.1104 1.16081 2.18404 23.7625
609 1 -1.1104 1.22663 2.47393 26.4931
619 1 -1.1104 4.17917 2.22674 23.4621
622 1 -1.1104 3.99294 2.00275 26.4332
615 2 2.2208 5.27818 3.66002 25.1451
637 2 2.2208 -0.249505 0.832179 22.1935
624 2 2.2208 2.59095 3.70248 22.1473
658 1 -1.1104 12.6355 19.0999 26.405
358 2 2.2208 -0.0714683 9.2059 13.7091
420 1 -1.1104 6.94492 -0.453399 20.662
449 1 -1.1104 12.2648 2.3576 20.6332
466 1 -1.1104 9.55467 -0.450117 20.7838
459 1 -1.1104 9.67473 -3.25494 20.6529
610 1 -1.1104 6.59989 -3.43472 26.5481
606 1 -1.1104 6.77842 -3.26292 23.6858
617 1 -1.1104 6.61376 -0.445887 26.5953
454 1 -1.1104 12.303 -0.740179 20.8706
461 1 -1.1104 9.69709 2.46298 20.8518
447 1 -1.1104 12.4095 -3.58324 20.8446
611 1 -1.1104 6.92665 2.39858 26.2952
607 1 -1.1104 6.88038 2.29761 23.4177
412 1 -1.1104 6.81201 2.32415 20.6909
613 1 -1.1104 6.90176 -0.611019 23.5629
639 2 2.2208 11.037 0.789544 22.226
640 1 -1.1104 12.2324 -3.64769 23.8138
642 1 -1.1104 12.2673 -3.30704 26.4273
644 1 -1.1104 12.2799 -0.579122 23.6457
645 2 2.2208 10.7707 -2.01375 24.9733
647 1 -1.1104 12.2337 -0.394003 26.3542
648 1 -1.1104 9.42832 -3.39741 23.4735
650 2 2.2208 8.10283 0.895662 25.1176
651 1 -1.1104 9.49467 -3.39993 26.3201
653 2 2.2208 8.20246 -2.00639 22.2106
655 1 -1.1104 9.54139 -0.454763 23.5606
656 1 -1.1104 9.41659 -0.706002 26.4948
641 1 -1.1104 12.4858 2.24985 23.3938
643 1 -1.1104 12.2095 2.25524 26.1752
649 1 -1.1104 9.63126 2.23526 23.8087
652 1 -1.1104 9.57792 2.11525 26.5085
654 2 2.2208 8.262 3.69042 22.1894
646 2 2.2208 11.0092 3.6657 24.9685
549 1 -1.1104 6.77319 13.4554 20.8234
492 1 -1.1104 1.14654 10.6309 20.8389
506 1 -1.1104 4.00234 5.02476 20.881
696 2 2.2208 -0.0916926 9.27507 25.0813
697 2 2.2208 -0.116468 12.0483 22.0612
508 1 -1.1104 3.94904 10.8304 20.7755
490 1 -1.1104 1.22942 5.02568 20.7923
501 1 -1.1104 4.08178 7.97841 21.0269
481 1 -1.1104 1.17615 7.70054 20.917
668 2 2.2208 5.50156 6.40798 22.2351
670 1 -1.1104 1.24005 7.9696 23.7233
672 1 -1.1104 1.30819 7.94758 26.5963
674 1 -1.1104 1.11482 5.09323 23.4506
679 1 -1.1104 1.22117 5.115 26.3992
683 1 -1.1104 4.07117 8.06094 23.6489
684 2 2.2208 2.59129 6.63123 25.0299
686 1 -1.1104 4.08469 7.9516 26.467
688 1 -1.1104 4.05006 5.04102 23.7507
690 1 -1.1104 4.01201 5.05773 26.6869
669 2 2.2208 5.44245 12.0807 22.1495
675 1 -1.1104 1.46076 10.7801 23.668
678 2 2.2208 5.46737 9.33918 25.0228
680 1 -1.1104 1.20479 10.6827 26.5113
685 2 2.2208 2.7546 12.2066 25.1057
687 2 2.2208 2.76368 9.41176 22.2455
689 1 -1.1104 4.1355 10.7013 23.582
691 1 -1.1104 4.04355 10.604 26.4457
438 2 2.2208 -0.244879 6.60645 22.3106
730 1 -1.1104 6.91709 18.8899 23.765
657 1 -1.1104 12.5616 13.5598 26.4401
719 2 2.2208 8.34068 14.8126 22.3191
533 1 -1.1104 9.60887 5.36483 20.5433
523 1 -1.1104 12.4885 10.6095 20.7896
483 1 -1.1104 6.86341 7.90501 20.7649
494 1 -1.1104 6.91479 5.06265 20.7329
496 1 -1.1104 6.74989 10.5869 20.9103
521 1 -1.1104 12.5541 5.20734 20.6829
681 1 -1.1104 6.92882 4.97368 26.4054
682 1 -1.1104 6.98388 10.4874 26.5363
673 1 -1.1104 7.00425 7.805 26.4216
671 1 -1.1104 6.97383 7.86119 23.4491
535 1 -1.1104 9.58935 10.6955 20.8158
516 1 -1.1104 12.6001 7.80407 20.7408
528 1 -1.1104 9.64274 7.91048 20.7767
676 1 -1.1104 6.77855 4.97819 23.6003
677 1 -1.1104 7.0243 10.7853 23.7572
700 1 -1.1104 9.71756 4.98814 26.3618
702 1 -1.1104 9.49767 4.94183 23.4892
704 1 -1.1104 9.67252 7.91767 26.2909
706 2 2.2208 8.28947 6.49408 24.8784
707 2 2.2208 11.0267 6.57724 22.0722
709 1 -1.1104 12.4197 7.87665 23.6474
710 1 -1.1104 12.4936 7.6064 26.5034
711 1 -1.1104 12.2893 5.13126 23.3654
714 1 -1.1104 12.3936 5.02228 26.211
716 1 -1.1104 9.62581 7.82549 23.5432
699 1 -1.1104 9.77764 10.654 26.3255
701 1 -1.1104 9.81426 10.6389 23.3552
703 2 2.2208 8.23611 9.37232 22.1691
705 2 2.2208 8.30643 11.9716 25.0926
708 2 2.2208 11.1411 12.1159 22.1813
712 1 -1.1104 12.497 10.819 23.7009
713 2 2.2208 11.0837 9.24868 24.9177
715 1 -1.1104 12.4528 10.6005 26.4931
557 1 -1.1104 1.13392 16.2579 20.7862
547 1 -1.1104 1.26763 18.9597 20.901
564 1 -1.1104 4.17247 13.5469 20.9237
347 2 2.2208 5.54602 -2.01479 13.7366
571 1 -1.1104 3.87769 16.3217 20.95
566 1 -1.1104 4.04246 19.1084 20.7917
749 2 2.2208 -0.214247 14.8904 24.899
725 1 -1.1104 3.91447 13.5503 23.6504
729 1 -1.1104 1.20695 13.628 26.4656
735 1 -1.1104 1.23378 13.4935 23.6506
740 1 -1.1104 3.96542 13.4557 26.5856
732 2 2.2208 5.48377 14.921 24.9554
723 1 -1.1104 4.19705 19.1424 23.8566
727 1 -1.1104 1.27787 18.8583 26.474
728 1 -1.1104 1.06822 16.1686 26.303
731 2 2.2208 5.49815 20.3611 25.1026
734 1 -1.1104 1.35655 19.0838 23.732
736 2 2.2208 5.34556 17.7011 22.3001
737 1 -1.1104 4.0773 19.0777 26.6
738 2 2.2208 2.63853 17.6691 25.0612
739 1 -1.1104 4.23045 16.3577 26.3286
742 1 -1.1104 1.13989 16.2881 23.5971
743 1 -1.1104 3.92584 16.2901 23.6644
744 2 2.2208 2.76435 20.5539 22.2701
745 2 2.2208 2.50511 14.8564 22.1604
750 2 2.2208 -0.0869888 20.3854 25.0362
593 1 -1.1104 9.52709 19.1576 20.727
695 2 2.2208 8.40167 17.6627 25.047
692 1 -1.1104 12.4913 16.6028 26.5239
559 1 -1.1104 6.78398 16.2906 20.7115
628 2 2.2208 11.0525 17.6937 21.9332
591 1 -1.1104 9.64489 13.3327 20.8346
579 1 -1.1104 12.5954 13.5713 20.7428
586 1 -1.1104 12.5872 16.4307 20.8405
694 1 -1.1104 9.64775 19.0611 23.5686
659 1 -1.1104 12.7034 16.2908 23.6627
733 1 -1.1104 6.83231 13.4735 23.6146
551 1 -1.1104 6.70641 19.072 20.9397
726 1 -1.1104 6.99636 16.1984 26.3477
698 1 -1.1104 6.88588 18.9735 26.2537
724 1 -1.1104 6.69489 13.3028 26.3785
741 1 -1.1104 6.9162 16.3172 23.6446
717 1 -1.1104 9.7403 13.5136 26.4494
721 2 2.2208 8.25491 20.5384 22.0953
361 2 2.2208 8.24517 12.0127 13.6902
474 2 2.2208 -0.155328 20.5552 19.4547
355 2 2.2208 2.56647 6.37106 13.8335
348 2 2.2208 2.73037 0.754475 13.7256
353 2 2.2208 10.9094 -1.95063 13.9201
359 2 2.2208 8.30534 6.3372 13.6415
367 2 2.2208 -0.136817 3.68162 13.7911
434 2 2.2208 5.34966 -4.64484 16.5359
439 2 2.2208 2.64594 -4.74285 13.7692
371 2 2.2208 8.26329 17.9616 13.8114
751 2 2.2208 5.47183 23.3237 5.39996
753 1 -1.1104 1.15167 24.6983 1.0773
754 1 -1.1104 1.22525 24.6661 3.89867
755 1 -1.1104 1.34244 21.7643 1.3306
757 2 2.2208 5.3322 26.245 2.46476
758 1 -1.1104 1.13723 21.9645 3.88192
760 1 -1.1104 3.99538 24.673 1.02217
761 2 2.2208 2.62343 23.4311 2.51331
763 1 -1.1104 4.04865 24.8641 3.90439
764 2 2.2208 2.59837 26.1962 5.18481
765 1 -1.1104 3.95501 21.8308 0.953498
766 1 -1.1104 3.89076 27.6217 0.967035
767 1 -1.1104 4.23447 21.8875 3.84767
756 1 -1.1104 1.15852 27.4262 1.18648
759 1 -1.1104 1.23757 27.4672 3.78123
768 1 -1.1104 3.85404 27.6889 3.64308
752 2 2.2208 5.42014 29.0581 5.51699
762 2 2.2208 2.47126 28.9438 2.4082
1120 2 2.2208 -0.161982 34.6265 -0.183044
898 1 -1.1104 4.14052 24.8563 6.69333
1126 2 2.2208 -0.272184 45.8512 -0.228668
870 2 2.2208 13.6383 43.0958 10.9472
1697 3 0 10.0569 46.8542 10.7974
895 1 -1.1104 1.23627 27.6358 6.54697
892 1 -1.1104 1.22284 24.8183 6.66801
1107 2 2.2208 5.53817 23.2578 -0.357404
9918 2 2.2208 -0.224992 45.7599 11.0187
776 1 -1.1104 7.02549 22.029 3.85732
773 1 -1.1104 6.86861 24.835 3.94994
775 1 -1.1104 6.84215 27.2577 1.00798
774 1 -1.1104 7.16699 21.7716 0.967129
777 1 -1.1104 6.7262 27.6498 4.01226
772 1 -1.1104 6.75823 24.6001 1.14467
778 2 2.2208 11.2237 23.4193 5.25748
780 1 -1.1104 12.4961 24.7984 1.06752
781 1 -1.1104 12.6947 24.7266 3.97205
782 1 -1.1104 12.6853 22.0566 1.01026
783 1 -1.1104 12.6725 27.5699 1.04536
784 2 2.2208 11.109 26.0925 2.54645
785 1 -1.1104 12.5548 22.0553 4.21361
787 1 -1.1104 9.76697 24.6547 1.08583
788 2 2.2208 8.30773 23.373 2.59449
790 1 -1.1104 9.68551 24.7944 3.74319
791 2 2.2208 8.25709 26.2603 5.20951
792 1 -1.1104 9.9834 21.7904 0.793823
794 1 -1.1104 9.98951 21.939 3.91466
786 1 -1.1104 12.3636 27.4006 3.86489
793 1 -1.1104 9.77663 27.584 0.946397
795 1 -1.1104 9.51961 27.5274 3.8479
779 2 2.2208 11.122 28.932 5.16415
789 2 2.2208 8.11081 28.9353 2.53344
1664 1 -1.1104 6.69716 47.1239 9.38761
820 2 2.2208 -0.300509 37.3771 2.42364
9917 2 2.2208 -0.24472 42.9389 8.18539
1116 2 2.2208 11.1163 28.6873 -0.394803
1042 1 -1.1104 12.4187 41.7245 12.4665
771 2 2.2208 -0.072815 26.0188 2.60325
800 1 -1.1104 1.17276 30.21 1.15238
803 1 -1.1104 1.27231 30.3401 3.95282
806 1 -1.1104 1.29815 33.2131 1.23193
807 2 2.2208 5.32882 31.6834 2.49554
809 1 -1.1104 0.936646 33.1503 3.89467
811 1 -1.1104 4.11323 30.1775 1.14972
814 1 -1.1104 4.01798 30.4725 3.89233
816 2 2.2208 2.62055 31.7631 5.34426
818 1 -1.1104 4.06531 33.0552 1.11328
819 1 -1.1104 3.98631 33.1054 4.11059
799 2 2.2208 5.51247 34.7604 5.37422
801 1 -1.1104 1.21042 36.0325 1.24417
804 1 -1.1104 1.15983 36.0447 3.95018
808 2 2.2208 5.39241 37.3313 2.50203
812 1 -1.1104 4.10908 35.8708 1.18546
813 2 2.2208 2.54451 34.5328 2.68535
815 1 -1.1104 4.10995 35.8633 3.83992
817 2 2.2208 2.64951 37.5156 5.29617
953 1 -1.1104 1.2975 33.0035 6.62199
950 1 -1.1104 1.18332 36.0021 6.62007
825 1 -1.1104 6.79133 32.9684 1.01462
810 1 -1.1104 6.69078 33.2129 4.07115
9919 2 2.2208 -0.283159 39.9735 11.0624
822 2 2.2208 -0.227297 34.7267 5.19169
1070 2 2.2208 -0.310267 28.9657 10.9027
1072 2 2.2208 -0.196818 23.4116 10.8797
1110 2 2.2208 -0.426317 28.8963 -0.354499
824 1 -1.1104 6.70736 30.4185 3.91699
802 1 -1.1104 6.80211 35.9417 0.959689
823 1 -1.1104 6.7767 30.2749 1.08535
805 1 -1.1104 6.82642 36.075 3.95218
827 1 -1.1104 12.4203 30.2393 1.07385
829 1 -1.1104 12.4523 30.2345 3.85761
831 1 -1.1104 12.3461 33.0771 1.04977
832 2 2.2208 10.9529 31.5991 2.40387
834 1 -1.1104 12.3933 33.2196 4.01564
835 1 -1.1104 9.60466 30.2275 1.05818
838 1 -1.1104 9.63783 30.3201 3.84687
840 2 2.2208 8.18379 31.6334 5.36289
842 1 -1.1104 9.67445 33.118 1.16072
843 1 -1.1104 9.29254 33.3523 4.04071
826 2 2.2208 10.9091 34.5731 5.19631
828 1 -1.1104 12.1606 36.005 1.12181
830 1 -1.1104 12.3264 36.1562 3.81885