ITEM: TIMESTEP
40000
ITEM: NUMBER OF ATOMS
17730
ITEM: BOX BOUNDS pp pp pp
-4.1005260275738548e-01 2.7750052602757826e+01
-4.9047965619303762e+00 3.3298479656193757e+02
-3.9199143298976430e-01 2.7731991432989251e+01
ITEM: ATOMS id type q x y z
1 2 2.2208 4.91362 0.588289 5.04282
2 1 -1.1104 1.00692 -3.41226 0.927043
6 1 -1.1104 0.893602 -3.48886 3.5514
10 1 -1.1104 0.695764 -0.648842 0.909043
12 2 2.2208 4.99565 -2.3366 2.12857
14 1 -1.1104 0.851366 -0.756589 3.58054
16 1 -1.1104 3.72008 -3.64365 0.661255
18 2 2.2208 2.14778 0.660116 2.15902
19 1 -1.1104 3.71567 -3.60553 3.60853
21 2 2.2208 2.40753 -2.24059 4.89916
23 1 -1.1104 3.56467 -0.814217 0.838006
24 1 -1.1104 3.76976 -0.958213 3.47073
3 1 -1.1104 0.876397 2.09016 0.619941
7 1 -1.1104 0.624822 2.04631 3.54592
13 2 2.2208 5.00162 3.16895 2.09617
17 1 -1.1104 3.68599 1.93246 0.736611
20 1 -1.1104 3.45914 1.81091 3.67664
22 2 2.2208 2.25016 3.40939 5.05417
8 1 -1.1104 6.50467 -3.6582 3.6329
4 1 -1.1104 6.62783 -3.91543 0.760957
15 1 -1.1104 6.58808 -0.90799 3.65212
166 1 -1.1104 0.995024 -3.59259 6.13158
9 1 -1.1104 6.3212 2.01238 3.55989
5 1 -1.1104 6.50598 1.82178 0.623247
11 1 -1.1104 6.31694 -0.952976 0.730776
173 1 -1.1104 3.7221 1.97718 6.36704
172 1 -1.1104 3.7374 -3.6714 6.53562
170 1 -1.1104 0.950895 -0.664429 6.33472
169 1 -1.1104 6.5637 1.98249 6.45272
168 1 -1.1104 6.46155 -3.70657 6.37316
174 1 -1.1104 3.71702 -0.856002 6.34173
171 1 -1.1104 6.48386 -0.720292 6.51718
167 1 -1.1104 0.893769 2.0749 6.36356
371 2 2.2208 7.8028 17.4034 13.4164
364 2 2.2208 5.06989 20.2507 13.4478
317 2 2.2208 7.91663 14.735 10.7747
31 2 2.2208 10.7597 0.641795 5.08338
32 1 -1.1104 12.2905 -3.6043 0.787627
34 1 -1.1104 12.1841 -3.65536 3.66642
36 1 -1.1104 12.2476 -0.792717 0.84689
37 2 2.2208 10.7083 -2.34633 2.28256
39 1 -1.1104 12.1036 -0.829805 3.71282
40 1 -1.1104 9.36688 -3.77398 0.820048
42 2 2.2208 7.7642 0.716658 2.25989
43 1 -1.1104 9.26851 -3.60864 3.65132
45 2 2.2208 7.88438 -2.07753 4.9095
47 1 -1.1104 9.11919 -0.779917 0.877872
48 1 -1.1104 9.51386 -0.804006 3.74182
33 1 -1.1104 12.0908 2.10392 0.959061
35 1 -1.1104 12.2558 1.88852 3.66367
38 2 2.2208 10.6337 3.41194 2.21583
41 1 -1.1104 9.31043 1.98984 0.758995
44 1 -1.1104 9.19265 1.93983 3.59632
206 1 -1.1104 12.0867 1.99182 6.50828
210 1 -1.1104 9.19304 -0.916685 6.63478
208 1 -1.1104 9.50279 -3.61529 6.34554
49 2 2.2208 13.6719 0.580083 2.22083
205 1 -1.1104 12.2032 -3.46805 6.49963
209 1 -1.1104 9.43786 1.92685 6.34886
50 2 2.2208 13.5935 -2.21311 4.96905
372 2 2.2208 13.4238 17.5685 13.4382
315 1 -1.1104 9.17179 16.1505 12.192
54 2 2.2208 5.13817 6.17278 5.01474
56 1 -1.1104 0.78614 7.45728 0.918288
58 1 -1.1104 0.636117 7.46683 3.57492
60 1 -1.1104 0.827192 4.82027 0.727142
67 1 -1.1104 1.02594 4.74962 3.57856
71 1 -1.1104 3.68436 7.61792 0.77684
72 2 2.2208 2.13442 6.26687 2.27534
74 1 -1.1104 3.61823 7.52671 3.75594
76 1 -1.1104 3.59781 4.8371 0.906906
79 1 -1.1104 3.71268 4.62584 3.83628
55 2 2.2208 5.0656 11.8946 4.86374
61 1 -1.1104 1.04988 10.2351 0.888603
66 2 2.2208 4.96227 8.96013 2.25708
68 1 -1.1104 0.894657 10.5092 3.65906
73 2 2.2208 2.17124 11.9075 2.24279
75 2 2.2208 2.28515 8.98018 5.08946
77 1 -1.1104 3.71981 10.3841 0.9159
80 1 -1.1104 3.51881 10.429 3.57776
70 1 -1.1104 6.63289 10.5577 3.77598
63 1 -1.1104 6.50682 4.51432 0.928475
69 1 -1.1104 6.46333 4.84049 3.65691
64 1 -1.1104 6.70043 10.3973 0.822595
57 1 -1.1104 6.46309 7.54037 0.992073
235 1 -1.1104 6.52725 7.71745 6.44202
234 1 -1.1104 0.884676 7.65344 6.36851
236 1 -1.1104 0.829759 4.81389 6.38305
78 1 -1.1104 3.56174 10.4054 6.51853
65 1 -1.1104 6.36767 10.5517 6.48735
239 1 -1.1104 3.67833 4.84504 6.61867
238 1 -1.1104 3.8017 7.72164 6.35272
237 1 -1.1104 6.45621 4.93098 6.52513
355 2 2.2208 2.23926 6.21 13.4951
46 2 2.2208 7.93404 3.38488 4.94065
59 1 -1.1104 6.5032 7.61856 3.60566
345 2 2.2208 13.4067 20.2495 10.6774
335 2 2.2208 13.5094 9.0606 5.18119
84 2 2.2208 10.7876 6.28632 5.2044
86 1 -1.1104 12.3331 7.521 0.857082
87 1 -1.1104 12.1008 7.79453 3.70197
88 1 -1.1104 12.0567 4.86699 0.997136
92 1 -1.1104 12.3078 5.0169 3.78321
94 1 -1.1104 9.35619 7.71774 0.919134
95 2 2.2208 7.99555 6.27532 2.23176
97 1 -1.1104 9.23519 7.31534 3.74148
99 1 -1.1104 9.17537 4.69756 1.00459
102 1 -1.1104 9.27909 4.76085 3.65933
85 2 2.2208 10.6034 11.7768 5.08856
89 1 -1.1104 12.1934 10.3885 0.860344
91 2 2.2208 10.8309 8.94905 2.23176
93 1 -1.1104 12.1284 10.4988 3.67336
96 2 2.2208 7.96289 11.9033 2.09666
98 2 2.2208 7.92725 8.99555 5.04678
100 1 -1.1104 9.57957 10.4089 0.820523
103 1 -1.1104 9.31558 10.4741 3.75354
105 2 2.2208 13.5565 6.19737 2.22829
101 1 -1.1104 9.25071 10.4799 6.52898
267 1 -1.1104 9.3694 7.51049 6.50185
265 1 -1.1104 12.1037 7.69825 6.61278
269 1 -1.1104 9.09877 4.76889 6.41895
266 1 -1.1104 11.8842 4.74317 6.52015
90 1 -1.1104 12.0337 10.4541 6.66771
107 1 -1.1104 0.817046 13.0957 0.795204
113 1 -1.1104 0.918099 13.443 3.69817
123 1 -1.1104 3.38094 13.2624 0.858188
128 1 -1.1104 3.69751 13.1666 3.55114
119 2 2.2208 4.96141 14.7304 2.14377
106 2 2.2208 5.04795 17.4509 5.21373
109 1 -1.1104 0.889191 18.7161 0.733563
114 1 -1.1104 0.844701 18.783 3.6791
116 1 -1.1104 0.992245 16.0555 0.883649
120 2 2.2208 5.19806 20.4112 2.3048
121 1 -1.1104 1.00883 16.0563 3.48779
125 1 -1.1104 3.75756 19.0031 0.681648
127 2 2.2208 2.43864 17.5845 2.19266
129 1 -1.1104 3.71306 19.0678 3.72121
130 2 2.2208 2.4675 14.6648 5.0252
131 2 2.2208 2.25012 20.4597 5.01405
132 1 -1.1104 3.77869 16.1482 0.878211
134 1 -1.1104 3.70782 16.1528 3.79893
140 1 -1.1104 6.37412 16.2107 0.58284
122 1 -1.1104 6.42077 16.1554 3.5242
115 1 -1.1104 6.53346 13.4718 3.54213
112 1 -1.1104 6.49777 18.8748 6.5863
138 1 -1.1104 6.60126 18.9678 0.874274
124 1 -1.1104 3.57276 13.0997 6.31755
133 1 -1.1104 3.60876 16.0988 6.47957
139 1 -1.1104 6.54789 18.9296 3.77523
110 1 -1.1104 6.51434 13.26 0.892725
111 1 -1.1104 6.42338 13.2682 6.40627
117 1 -1.1104 0.952972 16.1914 6.419
108 1 -1.1104 1.05666 13.2386 6.44088
126 1 -1.1104 3.67165 19.0048 6.45777
302 1 -1.1104 1.06189 18.8992 6.37726
118 1 -1.1104 6.41631 15.9774 6.5804
165 2 2.2208 13.393 17.3321 2.25231
323 1 -1.1104 12.0908 16.1243 9.31045
337 2 2.2208 13.4696 14.59 5.03172
142 1 -1.1104 12.1532 13.2802 0.798455
146 1 -1.1104 12.0022 13.1393 3.47404
153 1 -1.1104 9.23601 13.4476 0.864669
158 1 -1.1104 9.25897 13.2706 3.53937
150 2 2.2208 10.7083 14.6674 2.35999
160 2 2.2208 7.88001 14.6512 5.02331
141 2 2.2208 10.7001 17.3543 5.14945
144 1 -1.1104 12.0565 18.8444 0.902323
147 1 -1.1104 12.1253 18.9065 3.75173
148 1 -1.1104 12.0939 16.0367 0.994404
151 2 2.2208 10.7043 20.2302 2.32919
152 1 -1.1104 11.9814 16.0756 3.75528
155 1 -1.1104 9.14554 19.0307 1.05186
157 2 2.2208 7.9191 17.5363 2.40675
159 1 -1.1104 9.40142 18.6655 3.65399
161 2 2.2208 7.91293 20.2731 5.11165
162 1 -1.1104 9.15282 16.1054 0.885797
164 1 -1.1104 9.20065 15.9202 3.69091
156 1 -1.1104 9.28334 18.9345 6.58251
145 1 -1.1104 12.1291 18.6973 6.39479
163 1 -1.1104 9.28042 16.0564 6.49594
154 1 -1.1104 9.28077 13.2484 6.50072
143 1 -1.1104 12.2119 13.2412 6.45737
175 2 2.2208 5.08356 0.689961 10.5785
176 1 -1.1104 0.986779 -3.54322 12.1521
180 1 -1.1104 0.983206 -3.62328 9.20407
184 1 -1.1104 0.873753 -0.828429 11.9943
186 2 2.2208 5.23208 -2.22743 7.86318
188 1 -1.1104 1.06627 -0.806648 9.14984
190 1 -1.1104 3.70763 -3.72244 11.8489
192 2 2.2208 2.33198 0.580837 7.7842
193 1 -1.1104 3.791 -3.73377 9.16869
195 2 2.2208 2.32848 -2.28316 10.6494
197 1 -1.1104 3.71502 -0.791244 12.0247
198 1 -1.1104 3.78733 -0.827537 9.09663
177 1 -1.1104 0.8665 1.98603 11.9588
181 1 -1.1104 0.91287 1.96289 9.13622
191 1 -1.1104 3.83413 1.93634 11.9848
194 1 -1.1104 3.74689 1.97362 9.09599
196 2 2.2208 2.33611 3.22087 10.7544
187 2 2.2208 5.08388 3.44314 7.89918
183 1 -1.1104 6.53568 2.01108 9.24809
178 1 -1.1104 6.60194 -3.73867 11.9636
182 1 -1.1104 6.59283 -3.70694 9.14913
189 1 -1.1104 6.50504 -0.868121 9.24077
185 1 -1.1104 6.57028 -0.896308 11.9668
179 1 -1.1104 6.61693 1.882 12.0694
360 2 2.2208 10.7022 9.04872 13.4939
328 1 -1.1104 12.0422 13.0579 9.43042
349 2 2.2208 5.3046 3.36205 13.6592
347 2 2.2208 4.99001 -2.26511 13.5194
320 2 2.2208 7.87704 17.4842 7.87038
348 2 2.2208 2.37845 0.463871 13.4241
207 1 -1.1104 12.0088 -0.794059 6.52843
354 2 2.2208 10.7598 3.3247 13.644
352 2 2.2208 7.9197 0.408859 13.3596
353 2 2.2208 10.8845 -2.1885 13.3673
229 2 2.2208 13.456 0.509535 7.93759
341 2 2.2208 13.301 8.87647 10.8029
211 2 2.2208 10.8238 0.654591 10.7704
212 1 -1.1104 12.2059 -3.78345 12.0122
214 1 -1.1104 12.0962 -3.5582 9.15431
216 1 -1.1104 12.308 -0.912872 12.2093
217 2 2.2208 10.7605 -2.1872 7.8769
219 1 -1.1104 12.2275 -0.887254 9.36935
220 1 -1.1104 9.28761 -3.70692 12.0607
222 2 2.2208 7.92518 0.652325 7.90685
223 1 -1.1104 9.25014 -3.77956 9.52589
225 2 2.2208 7.89931 -2.24296 10.6501
227 1 -1.1104 9.46973 -0.851607 12.075
228 1 -1.1104 9.44674 -0.744279 9.49316
213 1 -1.1104 12.2968 1.90132 12.1264
215 1 -1.1104 12.1059 1.99752 9.35288
218 2 2.2208 10.8937 3.42055 7.83282
221 1 -1.1104 9.34133 2.04773 11.9993
224 1 -1.1104 9.44704 2.05379 9.17951
338 2 2.2208 13.5655 3.43256 10.7564
370 2 2.2208 13.5024 0.630907 13.5875
356 2 2.2208 5.21869 9.09411 13.538
319 1 -1.1104 9.16166 13.0999 9.40083
368 2 2.2208 10.6749 20.2929 13.4378
336 2 2.2208 13.6135 20.1632 5.11935
62 1 -1.1104 0.906889 10.3444 6.48268
240 2 2.2208 4.91937 6.12258 10.7901
242 1 -1.1104 0.99857 7.67269 12.285
244 1 -1.1104 0.804704 7.69509 9.40407
246 1 -1.1104 0.95142 4.75147 12.0552
251 1 -1.1104 0.818631 5.05152 9.17677
255 1 -1.1104 3.83226 7.71302 11.9856
256 2 2.2208 2.28526 6.14099 8.01312
258 1 -1.1104 3.65774 7.45553 9.36402
260 1 -1.1104 3.82738 4.61818 12.2221
262 1 -1.1104 3.6144 4.69328 9.35485
241 2 2.2208 5.09654 11.8802 10.6039
247 1 -1.1104 0.890447 10.3755 11.8878
250 2 2.2208 5.06965 9.03556 7.86266
252 1 -1.1104 0.969651 10.34 9.1905
257 2 2.2208 2.20665 11.8845 7.92609
259 2 2.2208 2.4328 9.02888 10.6086
261 1 -1.1104 3.73985 10.4448 12.0003
263 1 -1.1104 3.59786 10.3834 9.2132
243 1 -1.1104 6.45866 7.69246 12.2886
249 1 -1.1104 6.52657 10.398 12.1854
253 1 -1.1104 6.48737 4.88771 9.2727
245 1 -1.1104 6.23352 7.73166 9.49321
254 1 -1.1104 6.36902 10.3974 9.25455
327 1 -1.1104 12.1388 18.9796 9.30221
318 1 -1.1104 9.21081 18.9315 9.26662
362 2 2.2208 13.4855 11.89 13.4625
226 2 2.2208 7.902 3.51048 10.5645
248 1 -1.1104 6.76154 4.76877 12.2188
340 2 2.2208 13.4652 11.8696 7.90507
334 2 2.2208 13.5405 3.34717 4.96214
339 2 2.2208 13.456 6.20016 7.89399
285 1 -1.1104 9.39405 7.66505 12.2714
280 1 -1.1104 12.1093 4.6741 12.1009
283 1 -1.1104 12.3016 4.93328 9.33513
268 1 -1.1104 9.32134 4.77051 9.21426
271 1 -1.1104 9.278 4.84778 12.1329
273 1 -1.1104 9.15883 7.53722 9.42019
275 2 2.2208 7.9749 6.18712 7.69521
276 2 2.2208 10.6833 6.1297 10.7217
278 1 -1.1104 12.0923 7.53148 12.0674
279 1 -1.1104 11.9141 7.46427 9.24754
284 1 -1.1104 11.8967 10.305 9.43163
282 2 2.2208 10.7197 9.07367 7.93642
281 1 -1.1104 12.0265 10.2549 12.1283
264 1 -1.1104 9.09136 10.2793 9.35398
270 1 -1.1104 9.24558 10.5424 12.1241
272 2 2.2208 7.7971 9.0456 10.7567
274 2 2.2208 7.75167 11.8764 7.84926
277 2 2.2208 10.4855 11.8184 10.7481
359 2 2.2208 7.94457 6.24491 13.4621
361 2 2.2208 7.9697 11.828 13.4887
357 2 2.2208 2.21375 11.6842 13.3411
365 2 2.2208 5.06329 14.5417 13.4699
296 1 -1.1104 6.55447 18.7807 12.115
289 1 -1.1104 6.56496 16.3038 9.42339
306 1 -1.1104 6.43272 16.0498 12.0603
290 1 -1.1104 6.55978 13.3786 9.50813
288 1 -1.1104 6.36608 19.231 9.42764
297 1 -1.1104 6.57393 13.0627 12.1128
305 1 -1.1104 3.67417 13.3171 9.16482
299 1 -1.1104 0.968782 13.1813 12.0299
287 1 -1.1104 3.74165 13.2153 12.0386
294 1 -1.1104 0.829005 13.2134 9.3239
310 2 2.2208 2.16593 14.7811 10.6211
309 2 2.2208 2.20208 20.3618 10.5183
308 1 -1.1104 3.56479 16.0005 11.7722
307 1 -1.1104 0.839451 16.1563 11.9876
292 1 -1.1104 0.911732 16.0562 9.1913
304 1 -1.1104 3.76023 16.0763 9.29074
303 2 2.2208 2.19726 17.5063 7.85003
301 1 -1.1104 3.60837 18.8819 9.30775
300 2 2.2208 5.06969 17.5625 10.6879
291 1 -1.1104 1.03512 18.9526 9.17717
298 1 -1.1104 0.830478 18.8458 11.9778
295 2 2.2208 5.0333 14.6696 7.93434
286 1 -1.1104 3.62531 18.9322 11.9511
293 2 2.2208 5.23333 20.5816 7.94276
363 2 2.2208 2.30469 17.4177 13.4574
314 1 -1.1104 9.46645 16.1157 9.20709
316 2 2.2208 7.83633 20.3296 10.644
149 1 -1.1104 12.1096 15.9602 6.59663
369 2 2.2208 10.7733 14.6195 13.5087
322 1 -1.1104 9.39897 13.3499 12.0753
324 2 2.2208 10.7208 20.3548 7.91277
331 2 2.2208 10.7121 17.5067 10.6432
333 2 2.2208 13.5596 14.4351 10.6953
325 2 2.2208 10.7588 14.4388 7.92582
321 1 -1.1104 9.23335 18.8628 12.1417
329 1 -1.1104 12.096 18.8439 12.0464
330 1 -1.1104 12.1982 13.1904 12.2237
332 2 2.2208 13.4747 17.5429 7.91893
326 1 -1.1104 12.0172 15.9379 12.0513
312 2 2.2208 -0.261917 17.5278 10.4788
311 2 2.2208 -0.389878 20.3981 7.81656
343 2 2.2208 -0.391857 8.9968 7.93449
366 2 2.2208 13.4679 6.24167 13.4742
400 2 2.2208 5.13385 0.542292 16.2744
401 1 -1.1104 0.833702 -3.48836 17.4547
405 1 -1.1104 0.886667 -3.65913 14.8147
413 1 -1.1104 0.789555 -0.696517 17.4998
415 2 2.2208 5.13618 -2.15688 18.9974
417 1 -1.1104 0.89846 -0.847181 14.8251
421 1 -1.1104 3.49845 -3.58625 17.6469
423 2 2.2208 2.2433 0.572547 19.038
424 1 -1.1104 3.63951 -3.83508 14.9375
428 2 2.2208 2.24252 -2.26806 16.2536
430 1 -1.1104 3.73414 -0.997675 17.5161
431 1 -1.1104 3.74662 -1.01664 14.9424
402 1 -1.1104 0.787412 1.92029 17.5668
407 1 -1.1104 0.89342 1.84726 14.703
416 2 2.2208 5.15417 3.37942 19.1374
422 1 -1.1104 3.71676 2.05369 17.7195
426 1 -1.1104 3.67948 1.88509 14.9338
429 2 2.2208 2.36751 3.45629 16.2882
411 1 -1.1104 6.54525 2.01308 15.0301
408 1 -1.1104 1.01049 2.0845 20.3934
427 1 -1.1104 3.82869 1.90462 20.5435
409 1 -1.1104 6.46979 -3.64205 14.7948
404 1 -1.1104 6.5693 2.08645 17.8362
410 1 -1.1104 6.36824 -3.6 20.6189
432 1 -1.1104 3.56537 -0.78441 20.302
403 1 -1.1104 6.52833 -3.93274 17.557
419 1 -1.1104 6.48675 -0.821084 14.9135
414 1 -1.1104 6.59813 -0.87322 17.7751
418 1 -1.1104 0.873166 -0.737081 20.5269
406 1 -1.1104 0.703444 -3.63758 20.4013
425 1 -1.1104 3.61304 -3.6491 20.5564
420 1 -1.1104 6.52112 -0.749714 20.3455
412 1 -1.1104 6.60188 2.06474 20.4932
471 2 2.2208 13.4714 -2.37044 16.2634
375 2 2.2208 13.5205 20.2621 27.47
443 2 2.2208 10.6706 0.52749 16.3662
444 1 -1.1104 12.0575 -3.77638 17.7805
446 1 -1.1104 12.1111 -3.69732 14.7324
450 1 -1.1104 12.0498 -0.759164 17.7998
451 2 2.2208 10.7589 -2.19281 19.2375
453 1 -1.1104 12.0063 -0.759039 14.9504
455 1 -1.1104 9.22743 -3.66429 17.621
457 2 2.2208 7.94 0.609815 19.1451
458 1 -1.1104 9.32332 -3.52859 14.7982
462 2 2.2208 7.94757 -2.28554 16.1827
464 1 -1.1104 9.37384 -0.874117 17.6555
465 1 -1.1104 9.32976 -0.848053 14.9037
445 1 -1.1104 12.1726 1.79798 17.6391
448 1 -1.1104 12.0535 1.97895 15.002
452 2 2.2208 10.8011 3.34645 19.1206
456 1 -1.1104 9.39376 2.0092 17.6962
460 1 -1.1104 9.17805 1.88513 14.9146
463 2 2.2208 8.06421 3.42489 16.4546
449 1 -1.1104 12.1165 1.84038 20.3164
461 1 -1.1104 9.36902 1.95499 20.5124
447 1 -1.1104 11.9265 -3.62518 20.4504
600 2 2.2208 13.5258 3.3855 16.1401
599 2 2.2208 13.4955 0.549933 19.0157
459 1 -1.1104 9.1743 -3.61049 20.4056
454 1 -1.1104 12.3437 -0.920802 20.574
466 1 -1.1104 9.38375 -0.85007 20.5322
378 2 2.2208 10.72 17.4253 27.7145
374 2 2.2208 13.4223 14.6152 27.6607
476 2 2.2208 5.08769 6.30572 16.319
478 1 -1.1104 0.953433 7.54659 17.5953
480 1 -1.1104 0.920998 7.4811 14.8574
484 1 -1.1104 1.01137 4.8271 17.5587
489 1 -1.1104 0.919608 4.72328 14.8124
497 1 -1.1104 3.77966 7.73678 17.6919
498 2 2.2208 2.36395 6.2851 19.082
500 1 -1.1104 3.54981 7.69872 14.7607
503 1 -1.1104 3.70944 4.91017 17.8239
505 1 -1.1104 3.762 4.81893 14.8979
477 2 2.2208 4.98028 11.8096 16.2344
485 1 -1.1104 0.80714 10.4158 17.5693
488 2 2.2208 5.17083 9.02913 19.2301
491 1 -1.1104 0.814992 10.4923 14.9037
499 2 2.2208 2.24747 11.84 19.0711
502 2 2.2208 2.25426 8.92165 16.2054
504 1 -1.1104 3.57053 10.3521 17.5652
507 1 -1.1104 3.63446 10.4815 14.801
486 1 -1.1104 6.58212 4.94792 17.7884
495 1 -1.1104 6.6421 10.6005 14.9204
479 1 -1.1104 6.37654 7.71113 17.8246
493 1 -1.1104 6.4798 4.86471 15.0785
482 1 -1.1104 6.53676 7.77953 15.0587
487 1 -1.1104 6.44266 10.4846 17.7648
501 1 -1.1104 3.69505 7.64848 20.5361
481 1 -1.1104 0.94284 7.368 20.4739
506 1 -1.1104 3.72334 4.92797 20.5156
492 1 -1.1104 0.872318 10.484 20.5357
496 1 -1.1104 6.69803 10.5563 20.7845
490 1 -1.1104 0.91673 4.80333 20.4106
508 1 -1.1104 3.55001 10.5526 20.4913
494 1 -1.1104 6.5965 4.84116 20.508
483 1 -1.1104 6.55182 7.63935 20.4914
573 2 2.2208 13.6502 8.95824 16.1831
538 2 2.2208 13.5525 11.8636 19.1231
572 2 2.2208 13.6388 6.15051 19.1957
512 2 2.2208 10.6103 6.50029 16.3336
514 1 -1.1104 12.0508 7.5798 17.7122
515 1 -1.1104 12.2731 7.54495 14.9589
517 1 -1.1104 12.1034 4.71471 17.6224
520 1 -1.1104 12.0517 4.82181 14.8068
524 1 -1.1104 9.08893 7.78303 17.5927
525 2 2.2208 7.93354 6.29822 19.0618
527 1 -1.1104 9.35183 7.6892 14.8224
530 1 -1.1104 9.36524 4.94702 17.8248
532 1 -1.1104 9.06959 4.79657 14.9559
513 2 2.2208 10.8254 11.9523 16.4967
518 1 -1.1104 12.2485 10.4862 17.7379
519 2 2.2208 10.6672 9.07711 19.0242
522 1 -1.1104 12.3421 10.4555 14.7834
526 2 2.2208 7.92334 11.8306 19.0376
529 2 2.2208 7.95549 9.15109 16.2717
531 1 -1.1104 9.19069 10.5487 17.6579
534 1 -1.1104 9.40304 10.4089 14.7693
516 1 -1.1104 12.1232 7.59766 20.4158
535 1 -1.1104 9.62947 10.4276 20.3081
523 1 -1.1104 12.1117 10.3022 20.6704
528 1 -1.1104 9.43049 7.40163 20.421
533 1 -1.1104 9.37025 4.64032 20.4627
521 1 -1.1104 12.0308 4.63128 20.7456
721 2 2.2208 7.8799 20.3288 21.9739
389 2 2.2208 4.9863 11.8296 27.6637
540 1 -1.1104 0.717876 13.2273 17.4995
544 1 -1.1104 0.923213 13.1751 14.5097
560 1 -1.1104 3.66409 13.0956 17.7359
563 1 -1.1104 3.66699 13.2958 14.7867
554 2 2.2208 5.04071 14.7955 19.0708
539 2 2.2208 5.1086 17.6507 16.2935
541 1 -1.1104 0.892331 18.8588 17.4527
546 1 -1.1104 0.855358 18.761 14.6585
552 1 -1.1104 0.791335 15.9973 17.653
555 2 2.2208 4.89811 20.3432 19.3125
556 1 -1.1104 1.13631 15.877 14.7741
561 1 -1.1104 3.56722 18.8083 17.6101
562 2 2.2208 2.36263 17.4783 18.8623
565 1 -1.1104 3.66582 18.867 14.866
567 2 2.2208 2.27598 14.4068 16.1345
568 2 2.2208 2.37793 20.3088 16.25
569 1 -1.1104 3.5766 15.9832 17.5376
570 1 -1.1104 3.89312 16.211 14.7216
558 1 -1.1104 6.55556 16.3426 14.8372
548 1 -1.1104 6.58916 13.4014 14.8182
550 1 -1.1104 6.42973 19.1332 14.7708
566 1 -1.1104 3.59772 18.795 20.3849
559 1 -1.1104 6.55227 16.0551 20.7098
557 1 -1.1104 1.05198 16.3009 20.4407
545 1 -1.1104 0.747665 13.4567 20.5676
542 1 -1.1104 6.45264 13.4243 17.6601
553 1 -1.1104 6.41783 16.2245 17.8106
543 1 -1.1104 6.44444 18.9643 17.6457
564 1 -1.1104 3.49874 13.3259 20.4387
551 1 -1.1104 6.53092 19.0463 20.6279
547 1 -1.1104 0.923841 18.9061 20.2517
549 1 -1.1104 6.44754 13.2889 20.4922
571 1 -1.1104 3.81237 16.0455 20.5363
475 2 2.2208 13.4076 20.2386 16.2274
510 2 2.2208 13.6055 14.6879 16.1935
509 2 2.2208 13.5317 17.4009 19.0564
581 1 -1.1104 11.9638 18.8072 20.3966
576 1 -1.1104 12.1448 13.2987 17.7746
578 1 -1.1104 11.9827 13.292 15.0268
587 1 -1.1104 9.3342 13.1071 17.9232
590 1 -1.1104 9.44099 13.2963 14.9423
594 2 2.2208 7.96197 14.661 16.2308
583 2 2.2208 10.6381 14.6934 19.1088
575 2 2.2208 10.5556 17.4517 16.3333
577 1 -1.1104 12.1206 18.8207 17.5755
580 1 -1.1104 11.8999 18.8749 14.8352
582 1 -1.1104 12.0087 15.8617 17.634
584 2 2.2208 10.7208 20.1631 19.0378
585 1 -1.1104 12.2477 16.0749 14.7471
588 1 -1.1104 9.26103 18.9403 17.768
589 2 2.2208 7.78786 17.5836 19.0985
592 1 -1.1104 9.17142 18.5716 14.9668
595 2 2.2208 7.86035 20.4649 16.2645
596 1 -1.1104 9.31298 16.0267 17.6816
597 1 -1.1104 9.45404 15.9919 15.0094
579 1 -1.1104 12.016 13.1726 20.4885
593 1 -1.1104 9.24421 18.786 20.4108
586 1 -1.1104 12.143 16.0667 20.5511
591 1 -1.1104 9.20533 13.2568 20.6386
598 1 -1.1104 9.2543 16.0002 20.4027
373 2 2.2208 5.13806 0.515813 27.4928
377 2 2.2208 7.77675 14.7679 27.5499
376 2 2.2208 2.28291 -2.25527 27.4293
603 2 2.2208 5.16845 0.493777 21.7828
604 1 -1.1104 0.700171 -3.6191 23.127
608 1 -1.1104 0.759117 -3.57371 26.1315
612 1 -1.1104 0.680173 -0.993031 23.2693
614 2 2.2208 5.0435 -2.16959 24.6643
616 1 -1.1104 0.659476 -0.818986 26.0816
618 1 -1.1104 3.55574 -3.53295 23.3462
620 2 2.2208 2.21428 0.592076 24.6799
621 1 -1.1104 3.57063 -3.61602 26.2163
623 2 2.2208 2.41181 -2.11138 21.9004
625 1 -1.1104 3.64215 -0.804237 23.0851
626 1 -1.1104 3.6658 -0.740265 25.8253
605 1 -1.1104 0.855482 2.07103 23.2027
609 1 -1.1104 1.04846 2.21044 25.9846
615 2 2.2208 5.05397 3.31571 24.582
619 1 -1.1104 3.57015 1.83762 23.2524
622 1 -1.1104 3.76885 1.90031 26.1048
624 2 2.2208 2.37223 3.4018 21.8005
606 1 -1.1104 6.5376 -3.77584 23.3656
607 1 -1.1104 6.44998 1.95418 23.2448
611 1 -1.1104 6.5307 2.07842 26.0972
613 1 -1.1104 6.40434 -0.824279 23.3046
610 1 -1.1104 6.39455 -3.73864 26.002
617 1 -1.1104 6.52626 -0.866831 26.2009
380 2 2.2208 2.33142 3.43355 27.4169
382 2 2.2208 10.6912 0.471113 27.624
441 2 2.2208 13.539 3.23451 22.0061
639 2 2.2208 10.646 0.395736 21.8954
640 1 -1.1104 12.1868 -3.71811 23.2262
642 1 -1.1104 12.0141 -3.62898 26.086
644 1 -1.1104 12.1079 -0.98471 23.4454
645 2 2.2208 10.8384 -2.22554 24.7995
647 1 -1.1104 12.0516 -0.970425 26.1678
648 1 -1.1104 9.37013 -3.64506 23.3327
650 2 2.2208 7.90402 0.582108 24.8184
651 1 -1.1104 9.11981 -3.85746 26.246
653 2 2.2208 7.89278 -2.2252 21.7984
655 1 -1.1104 9.33382 -0.977832 23.4256
656 1 -1.1104 9.41617 -1.13537 26.1761
641 1 -1.1104 12.0435 1.75398 23.0458
643 1 -1.1104 12.1495 1.78506 26.1196
646 2 2.2208 10.6485 3.37864 24.7646
649 1 -1.1104 9.39849 1.93514 23.3472
652 1 -1.1104 9.29698 1.80764 26.2366
654 2 2.2208 8.01169 3.37158 21.7945
666 2 2.2208 13.4826 0.488052 24.8164
385 2 2.2208 13.6229 -2.17972 27.5353
658 1 -1.1104 11.9801 18.7314 26.1682
383 2 2.2208 7.94512 -2.29307 27.5525
657 1 -1.1104 12.2575 13.4495 26.0277
386 2 2.2208 13.5113 3.225 27.5656
384 2 2.2208 7.99989 3.40946 27.571
387 2 2.2208 5.08049 6.15029 27.6576
668 2 2.2208 5.13126 6.10059 21.9253
670 1 -1.1104 0.983777 7.53279 23.4252
672 1 -1.1104 0.905378 7.67708 26.2749
674 1 -1.1104 1.01418 4.73572 23.1746
679 1 -1.1104 0.920714 4.96552 26.0676
683 1 -1.1104 3.81118 7.56981 23.2633
684 2 2.2208 2.3634 6.116 24.6138
686 1 -1.1104 3.82961 7.47353 26.0409
688 1 -1.1104 3.84377 4.69788 23.2355
690 1 -1.1104 3.7521 4.62602 25.9385
669 2 2.2208 4.89607 11.7669 21.943
675 1 -1.1104 1.02251 10.4094 23.284
678 2 2.2208 5.18564 8.94074 24.7014
680 1 -1.1104 0.922264 10.3782 26.1407
685 2 2.2208 2.26432 11.8438 24.6765
687 2 2.2208 2.3298 9.14481 21.8837
689 1 -1.1104 3.88303 10.1126 23.1997
691 1 -1.1104 3.89548 10.3888 26.0957
682 1 -1.1104 6.63049 10.2463 26.3313
676 1 -1.1104 6.59521 4.61897 23.2729
671 1 -1.1104 6.53203 7.58842 23.3754
673 1 -1.1104 6.60289 7.36191 26.196
681 1 -1.1104 6.47298 4.76821 26.185
677 1 -1.1104 6.62033 10.4459 23.5131
388 2 2.2208 2.20168 8.88876 27.5394
720 2 2.2208 13.4403 11.7349 24.6726
700 1 -1.1104 9.3657 4.66084 26.1772
702 1 -1.1104 9.50952 4.78416 23.1756
704 1 -1.1104 9.39024 7.29721 26.1746
706 2 2.2208 7.84578 6.01209 24.7706
707 2 2.2208 10.6433 6.13936 21.9408
709 1 -1.1104 12.1379 7.47094 23.2696
710 1 -1.1104 12.1188 7.26067 26.0954
711 1 -1.1104 12.2151 4.75051 23.5343
714 1 -1.1104 12.051 4.62479 26.352
716 1 -1.1104 9.2666 7.51681 23.2551
699 1 -1.1104 9.39273 10.3511 26.1024
701 1 -1.1104 9.37544 10.4963 23.2802
703 2 2.2208 7.97295 9.11753 21.9684
705 2 2.2208 7.9111 11.9686 24.8981
708 2 2.2208 10.8506 11.8587 21.951
712 1 -1.1104 12.073 10.3148 23.3208
713 2 2.2208 10.6495 8.96035 24.775
715 1 -1.1104 12.0175 10.2118 26.3808
440 2 2.2208 13.5335 8.93361 21.7794
722 2 2.2208 13.5682 6.11554 24.6825
395 2 2.2208 13.5032 8.95597 27.5153
392 2 2.2208 10.6525 5.9938 27.5765
394 2 2.2208 10.8712 11.8265 27.6895
393 2 2.2208 8.04213 9.01236 27.5286
724 1 -1.1104 6.33982 13.3332 26.2596
741 1 -1.1104 6.53852 16.1502 23.5572
730 1 -1.1104 6.71875 18.8462 23.4506
726 1 -1.1104 6.57378 16.3069 26.0934
725 1 -1.1104 3.5452 13.1226 23.1311
729 1 -1.1104 0.886819 13.3027 26.0581
735 1 -1.1104 0.604643 13.1741 23.4314
740 1 -1.1104 3.7035 13.1472 26.0433
732 2 2.2208 5.21063 14.67 24.6753
723 1 -1.1104 3.8696 19.0921 23.2236
727 1 -1.1104 0.733994 18.9004 26.0586
728 1 -1.1104 0.718298 16.1217 26.1312
731 2 2.2208 5.11036 20.3478 24.7746
734 1 -1.1104 1.00191 18.8533 23.2009
736 2 2.2208 5.1892 17.5457 22.0126
737 1 -1.1104 3.53988 18.9097 26.0355
738 2 2.2208 1.97888 17.2452 24.6817
739 1 -1.1104 3.67944 16.0789 26.1087
742 1 -1.1104 0.663483 15.8743 23.2653
743 1 -1.1104 3.5362 15.9228 23.3405
744 2 2.2208 2.18629 20.327 21.8232
745 2 2.2208 2.20823 14.7633 21.9776
698 1 -1.1104 6.36515 19.1515 26.2514
398 2 2.2208 2.28992 14.7897 27.4902
733 1 -1.1104 6.3054 13.2268 23.4059
397 2 2.2208 5.11145 17.6963 27.4511
396 2 2.2208 2.22499 20.2877 27.4152
628 2 2.2208 10.5882 17.3751 21.9417
635 1 -1.1104 12.0957 18.754 23.3077
659 1 -1.1104 12.0714 15.996 23.3386
747 1 -1.1104 9.43637 16.1629 26.204
719 2 2.2208 7.80803 14.6674 21.9341
667 2 2.2208 10.6399 20.2622 24.8928
717 1 -1.1104 9.38981 13.2013 26.3493
629 1 -1.1104 11.9307 13.3264 23.307
665 2 2.2208 13.6158 -2.28661 21.9571
627 2 2.2208 13.5789 20.1484 21.881
601 2 2.2208 13.3915 14.6374 21.8954
694 1 -1.1104 9.29096 18.8819 23.2663
379 2 2.2208 8.11584 20.4476 27.6541
664 2 2.2208 10.7398 14.7451 24.7944
692 1 -1.1104 12.1246 16.0254 26.2605
695 2 2.2208 7.98862 17.6212 24.8362
746 1 -1.1104 9.36833 16.117 23.3166
693 1 -1.1104 9.12795 13.3432 23.6773
718 1 -1.1104 9.24344 18.9487 26.345
602 2 2.2208 13.3823 17.4168 24.7312
468 2 2.2208 10.7576 -4.88098 16.2823
390 2 2.2208 -0.321591 11.7039 27.5089
435 2 2.2208 2.16008 -4.90923 19.0132
511 2 2.2208 -0.436938 6.19827 16.2596
751 2 2.2208 5.19415 23.0998 4.91785
753 1 -1.1104 0.906469 24.4878 0.715296
754 1 -1.1104 0.991943 24.675 3.61206
755 1 -1.1104 0.801419 21.8073 0.550286
757 2 2.2208 5.06256 25.9478 2.06312
758 1 -1.1104 0.741544 21.7427 3.60276
760 1 -1.1104 3.59068 24.5401 0.421288
761 2 2.2208 2.17171 23.3197 1.98978
763 1 -1.1104 3.70524 24.4785 3.29261
764 2 2.2208 2.06674 25.9429 4.87614
765 1 -1.1104 3.57166 21.712 0.826869
766 1 -1.1104 3.76073 27.3834 0.707291
767 1 -1.1104 3.61797 21.7626 3.64638
759 1 -1.1104 0.873036 27.4074 3.45411
768 1 -1.1104 3.66759 27.0857 3.52185
756 1 -1.1104 0.977724 27.4117 0.652104
752 2 2.2208 4.97609 28.6526 4.99314
762 2 2.2208 2.2867 28.796 2.2436
894 1 -1.1104 0.847102 22.0666 6.47793
777 1 -1.1104 6.56914 27.4444 3.63336
775 1 -1.1104 6.46509 27.4375 0.772334
773 1 -1.1104 6.43558 24.7145 3.62742
893 1 -1.1104 6.57301 24.2799 6.27535
772 1 -1.1104 6.44015 24.5885 0.83429
774 1 -1.1104 6.42789 21.8053 0.930407
776 1 -1.1104 6.56002 21.67 3.64979
895 1 -1.1104 0.762056 27.3389 6.47844
896 1 -1.1104 6.46652 21.687 6.44383
898 1 -1.1104 3.75357 24.4698 6.07386
899 1 -1.1104 3.72788 21.7908 6.59201
900 1 -1.1104 3.55912 27.1997 6.31304
892 1 -1.1104 0.8801 24.7306 6.41197
778 2 2.2208 10.722 23.0412 4.99501
780 1 -1.1104 12.1211 24.4323 0.727979
781 1 -1.1104 12.1014 24.5354 3.61025
782 1 -1.1104 12.2209 21.5907 0.808273
783 1 -1.1104 11.9273 27.3382 0.969892
784 2 2.2208 10.7007 25.9118 2.33015
785 1 -1.1104 11.9787 21.5952 3.70881
787 1 -1.1104 9.23277 24.6448 0.734339
788 2 2.2208 7.88572 23.1601 2.24619
790 1 -1.1104 9.22971 24.3933 3.79248
791 2 2.2208 7.8767 26.0319 4.97813
792 1 -1.1104 9.51216 21.8251 0.831395
794 1 -1.1104 9.2089 21.7432 3.56963
786 1 -1.1104 12.2313 27.1784 3.71026
793 1 -1.1104 9.11471 27.3059 0.962092
795 1 -1.1104 9.35146 27.3395 3.62703
779 2 2.2208 10.7552 28.7082 4.94579
789 2 2.2208 7.84197 28.8199 2.15631
929 1 -1.1104 9.41022 21.7008 6.35116
925 1 -1.1104 12.1654 24.369 6.34724
926 1 -1.1104 12.2992 21.5374 6.48367
1099 2 2.2208 2.4086 45.8516 13.3732
796 2 2.2208 13.452 23.0951 2.09288
1689 1 -1.1104 9.34534 46.8836 6.33697
930 1 -1.1104 9.49839 27.4329 6.31884
800 1 -1.1104 0.789434 30.1475 0.969565
803 1 -1.1104 0.737347 30.1442 3.61152
806 1 -1.1104 0.799444 33.084 0.786709
807 2 2.2208 5.04037 31.7013 2.20617
809 1 -1.1104 0.787331 32.9476 3.51905
811 1 -1.1104 3.52645 30.2043 0.764382
814 1 -1.1104 3.5773 30.2057 3.42962
816 2 2.2208 2.196 31.5834 4.99204
818 1 -1.1104 3.54162 32.9188 0.742361
819 1 -1.1104 3.61055 33.077 3.60719
799 2 2.2208 5.09301 34.3186 5.10421
801 1 -1.1104 0.596602 35.9135 0.850229
804 1 -1.1104 0.736822 35.8211 3.66964
808 2 2.2208 5.06119 37.2803 2.2082
812 1 -1.1104 3.5761 35.9103 0.67405
813 2 2.2208 2.15098 34.4963 2.3268
815 1 -1.1104 3.65877 35.9134 3.77755
817 2 2.2208 2.29631 37.1906 5.01043
956 1 -1.1104 3.52394 35.927 6.57809
810 1 -1.1104 6.40716 33.0094 3.55209
824 1 -1.1104 6.44952 30.1006 3.75258
805 1 -1.1104 6.33541 35.8641 3.64096
825 1 -1.1104 6.51833 33.1592 0.581223
823 1 -1.1104 6.39377 30.2856 0.930945
802 1 -1.1104 6.3913 35.7996 0.788557
950 1 -1.1104 0.81732 35.7517 6.53353
954 1 -1.1104 6.46457 33.0828 6.51798
949 1 -1.1104 0.954989 30.1996 6.43563
955 1 -1.1104 3.78936 30.0082 6.47156
953 1 -1.1104 0.718555 33.0325 6.38128
957 1 -1.1104 3.58876 32.8766 6.32853
951 1 -1.1104 6.80229 30.1209 6.57654
1106 2 2.2208 13.6237 40.0961 13.4025
1064 2 2.2208 13.376 37.3203 5.00053
844 2 2.2208 13.4851 34.446 2.2005
827 1 -1.1104 12.0292 30.0802 0.821971
829 1 -1.1104 12.2185 30.1883 3.54325
831 1 -1.1104 12.1242 33.02 0.767963
832 2 2.2208 10.7256 31.5104 2.22864
834 1 -1.1104 12.2396 33.1626 3.68646
835 1 -1.1104 9.26143 30.2937 0.759414
838 1 -1.1104 9.39909 30.2024 3.62772
840 2 2.2208 8.02529 31.5186 5.10764
842 1 -1.1104 9.31836 33.0756 0.767698
843 1 -1.1104 9.06679 33.0382 3.60592
826 2 2.2208 10.6243 34.3292 5.09123
828 1 -1.1104 12.0798 35.9752 0.906719
830 1 -1.1104 12.0177 35.9588 3.62612
833 2 2.2208 10.6059 37.2779 2.27591
836 1 -1.1104 9.26043 35.8136 0.854428
837 2 2.2208 7.96631 34.5512 2.20688
839 1 -1.1104 9.23852 35.8618 3.74664