ITEM: TIMESTEP
40000
ITEM: NUMBER OF ATOMS
17760
ITEM: BOX BOUNDS pp pp pp
-3.6757171281486528e-01 2.7707571712814740e+01
-4.6721754687320045e+00 3.3275217546872454e+02
-3.7222894941843915e-01 2.7712228949418453e+01
ITEM: ATOMS id type q x y z
1 2 2.2208 5.15322 1.02973 5.18894
2 1 -1.1104 0.93837 -3.14651 1.08606
3 1 -1.1104 0.971134 2.41429 1.06902
6 1 -1.1104 0.995379 -3.13217 3.75187
7 1 -1.1104 1.04779 2.49906 3.7524
10 1 -1.1104 1.04413 -0.281222 0.850775
12 2 2.2208 5.00226 -1.74747 2.40737
13 2 2.2208 5.22076 3.7011 2.47016
14 1 -1.1104 0.997594 -0.338188 3.68673
16 1 -1.1104 3.81738 -3.27405 1.00886
17 1 -1.1104 3.96231 2.37478 1.0826
18 2 2.2208 2.39621 1.02968 2.21243
19 1 -1.1104 3.75842 -3.13068 3.86989
20 1 -1.1104 3.83624 2.38472 3.87059
21 2 2.2208 2.41485 -1.87009 5.21611
22 2 2.2208 2.46173 3.79419 5.17641
23 1 -1.1104 3.72369 -0.472086 1.01053
24 1 -1.1104 3.69509 -0.357296 3.89816
8 1 -1.1104 6.55358 -3.22858 3.78026
4 1 -1.1104 6.4777 -3.10356 1.11495
5 1 -1.1104 6.70129 2.476 0.99149
9 1 -1.1104 6.59357 2.46544 3.87212
15 1 -1.1104 6.48678 -0.619886 3.82098
9470 2 2.2208 2.3525 -4.62057 13.7084
9056 2 2.2208 2.42109 -4.5392 2.43064
171 1 -1.1104 6.61742 -0.464466 6.64999
167 1 -1.1104 1.12807 2.29409 6.6761
11 1 -1.1104 6.74117 -0.375161 1.14998
9060 2 2.2208 10.8213 -4.64501 5.32061
31 2 2.2208 10.8217 0.967617 5.31556
32 1 -1.1104 12.1025 -3.21417 1.10608
33 1 -1.1104 12.2778 2.24643 1.0669
34 1 -1.1104 12.2115 -3.22046 4.10683
35 1 -1.1104 12.228 2.48335 3.95993
36 1 -1.1104 12.114 -0.440797 0.960317
37 2 2.2208 10.7404 -1.8441 2.4666
38 2 2.2208 10.8707 3.85747 2.52261
39 1 -1.1104 12.2303 -0.382674 3.81635
40 1 -1.1104 9.32388 -3.17898 1.10151
41 1 -1.1104 9.44875 2.44622 1.14931
42 2 2.2208 7.95292 0.95289 2.57425
43 1 -1.1104 9.39381 -3.16578 3.92623
44 1 -1.1104 9.44976 2.38936 3.93722
45 2 2.2208 7.96786 -1.85305 5.31671
46 2 2.2208 8.14007 3.70804 5.15361
47 1 -1.1104 9.39602 -0.412532 1.15731
48 1 -1.1104 9.33062 -0.301558 3.97075
353 2 2.2208 2.34325 9.31441 -0.500488
9067 2 2.2208 13.5263 -4.57082 8.05679
9065 2 2.2208 8.07412 -4.69963 8.19224
207 1 -1.1104 12.2268 -0.431989 6.56888
209 1 -1.1104 9.46892 2.59598 6.73804
9059 2 2.2208 7.93131 -4.55594 2.43624
9066 2 2.2208 10.8744 -4.4413 10.9121
356 2 2.2208 10.9905 6.65383 -0.40997
54 2 2.2208 5.37108 6.65058 5.26199
55 2 2.2208 5.28776 12.2303 5.07012
56 1 -1.1104 0.984853 8.00393 0.93875
58 1 -1.1104 1.08541 7.9331 3.88624
60 1 -1.1104 1.10788 5.12142 1.00616
61 1 -1.1104 1.02407 10.7857 1.06272
66 2 2.2208 5.32477 9.3633 2.3341
67 1 -1.1104 1.02076 5.31244 3.81844
68 1 -1.1104 1.06311 10.8565 3.99989
71 1 -1.1104 3.7355 8.00257 1.01874
72 2 2.2208 2.51409 6.53893 2.46054
73 2 2.2208 2.49861 12.1897 2.30777
74 1 -1.1104 3.77676 7.99251 3.73277
75 2 2.2208 2.47952 9.49159 5.22775
76 1 -1.1104 3.87846 5.06825 1.09914
77 1 -1.1104 3.90616 10.7228 0.983817
79 1 -1.1104 3.9265 5.11363 3.88096
80 1 -1.1104 3.98202 10.9179 3.52764
70 1 -1.1104 6.68126 10.7205 3.73498
63 1 -1.1104 6.63801 5.39847 0.952811
59 1 -1.1104 6.58238 7.96421 3.88007
69 1 -1.1104 6.7555 5.1619 3.7708
64 1 -1.1104 6.73149 10.9163 0.808482
57 1 -1.1104 6.55064 8.06468 0.993883
235 1 -1.1104 6.7961 8.16574 6.67936
236 1 -1.1104 1.08626 5.20137 6.48294
65 1 -1.1104 6.78506 10.8738 6.55083
49 2 2.2208 13.5671 0.99164 2.57629
9061 2 2.2208 13.5922 -4.5968 2.46914
333 2 2.2208 13.7608 15.0746 10.8778
50 2 2.2208 13.6085 -1.73083 5.2331
229 2 2.2208 13.6011 0.938952 8.04959
84 2 2.2208 10.8759 6.63843 5.28537
85 2 2.2208 10.9163 12.222 5.21067
86 1 -1.1104 12.2888 8.01779 0.96116
87 1 -1.1104 12.1344 8.08149 3.92292
88 1 -1.1104 12.3326 5.19704 0.990128
89 1 -1.1104 12.2473 10.7387 1.09637
91 2 2.2208 10.7943 9.33905 2.38053
92 1 -1.1104 12.3505 5.23346 3.80846
93 1 -1.1104 12.2156 10.8145 3.80553
94 1 -1.1104 9.366 7.91374 1.00751
95 2 2.2208 8.01936 6.6333 2.44583
96 2 2.2208 8.0086 12.245 2.54857
97 1 -1.1104 9.46435 8.02682 3.78596
98 2 2.2208 8.20466 9.40791 5.28697
99 1 -1.1104 9.54756 5.22344 1.10269
100 1 -1.1104 9.35786 10.8142 1.09813
102 1 -1.1104 9.48365 5.20109 3.89197
103 1 -1.1104 9.47402 10.767 3.83207
267 1 -1.1104 9.48993 7.89243 6.51678
311 2 2.2208 -0.251387 20.7035 8.10189
90 1 -1.1104 12.1965 10.9195 6.5832
101 1 -1.1104 9.5113 10.7164 6.66268
327 1 -1.1104 12.4532 19.2855 9.24327
312 2 2.2208 -0.285062 17.9312 10.8785
335 2 2.2208 5.09384 -1.72947 13.5846
106 2 2.2208 5.29905 17.8561 5.10403
107 1 -1.1104 1.07571 13.7013 0.865096
109 1 -1.1104 1.12709 19.3029 1.05023
113 1 -1.1104 1.13767 13.6801 3.67789
114 1 -1.1104 0.895179 19.4457 3.80366
116 1 -1.1104 1.12239 16.6258 1.0235
119 2 2.2208 5.16803 15.0804 2.39287
120 2 2.2208 5.31215 20.8013 2.51839
121 1 -1.1104 1.19849 16.606 3.84801
123 1 -1.1104 3.88197 13.5704 0.921792
125 1 -1.1104 3.98845 19.3083 0.838984
127 2 2.2208 2.52064 17.9926 2.45147
128 1 -1.1104 3.82868 13.6475 3.74394
129 1 -1.1104 3.85583 19.3061 3.83269
130 2 2.2208 2.51649 15.1483 5.26722
131 2 2.2208 2.44622 20.7957 5.32242
132 1 -1.1104 3.83795 16.4547 0.9681
134 1 -1.1104 3.86655 16.5261 3.94534
140 1 -1.1104 6.63225 16.4619 0.958344
115 1 -1.1104 6.56501 13.6385 3.78625
110 1 -1.1104 6.54577 13.6937 0.938909
138 1 -1.1104 6.78445 19.3214 0.989324
139 1 -1.1104 6.5222 19.2834 3.74493
122 1 -1.1104 6.55473 16.4655 3.65763
111 1 -1.1104 6.7645 13.737 6.60812
112 1 -1.1104 6.66829 19.342 6.63444
118 1 -1.1104 6.55715 16.5627 6.63719
133 1 -1.1104 4.06867 16.5194 6.64993
126 1 -1.1104 3.90778 19.2884 6.55218
108 1 -1.1104 0.954814 13.7116 6.5102
117 1 -1.1104 1.13134 16.3725 6.58766
343 2 2.2208 5.17696 1.00985 -0.445621
9063 2 2.2208 5.23288 -4.59749 10.9296
104 2 2.2208 13.6302 12.2159 2.19492
204 2 2.2208 13.664 15.1418 5.30664
156 1 -1.1104 9.40047 19.1415 6.56632
141 2 2.2208 10.8279 17.7977 5.10972
142 1 -1.1104 12.152 13.5634 0.860082
144 1 -1.1104 12.2475 19.3527 1.16117
146 1 -1.1104 12.1401 13.5643 3.70724
147 1 -1.1104 12.3548 19.2518 3.88836
148 1 -1.1104 12.4531 16.4488 1.06007
150 2 2.2208 10.8383 15.0246 2.39195
151 2 2.2208 10.8159 20.8179 2.50199
152 1 -1.1104 12.1534 16.4533 3.81906
153 1 -1.1104 9.44401 13.5145 1.0578
155 1 -1.1104 9.41538 19.2732 1.05185
157 2 2.2208 8.01277 17.937 2.36794
158 1 -1.1104 9.38663 13.5082 3.76858
159 1 -1.1104 9.46324 19.4416 3.77327
160 2 2.2208 8.08907 15.0474 5.15303
161 2 2.2208 8.01758 20.7477 5.28274
162 1 -1.1104 9.54795 16.3892 0.937
164 1 -1.1104 9.39588 16.5286 3.70748
675 2 2.2208 8.00887 9.44783 -0.453522
154 1 -1.1104 9.57773 13.7455 6.59279
145 1 -1.1104 12.0894 19.1217 6.59429
149 1 -1.1104 12.3518 16.5611 6.64356
9057 2 2.2208 5.19939 -4.66594 5.24585
9062 2 2.2208 2.4427 -4.56427 8.0632
319 1 -1.1104 9.52163 13.7059 9.27537
174 1 -1.1104 3.86302 -0.355818 6.69222
172 1 -1.1104 3.74031 -3.21465 6.51799
168 1 -1.1104 6.58141 -3.341 6.67804
166 1 -1.1104 1.08736 -3.29845 6.56489
173 1 -1.1104 3.95933 2.62734 6.59946
170 1 -1.1104 1.17021 -0.565206 6.5932
175 2 2.2208 5.18962 0.989186 10.8873
176 1 -1.1104 0.856154 -3.12173 12.2499
177 1 -1.1104 1.00067 2.31667 12.2762
180 1 -1.1104 1.02158 -3.18206 9.40005
181 1 -1.1104 1.02318 2.3 9.40808
184 1 -1.1104 0.800549 -0.438376 12.276
186 2 2.2208 5.17751 -1.90762 8.02987
187 2 2.2208 5.44209 3.85775 8.11231
188 1 -1.1104 1.02452 -0.476317 9.33652
190 1 -1.1104 3.70614 -3.09554 12.2252
191 1 -1.1104 3.7716 2.48329 12.3099
192 2 2.2208 2.56126 1.02696 7.99568
193 1 -1.1104 3.79305 -3.35273 9.44501
194 1 -1.1104 3.85075 2.45519 9.38884
195 2 2.2208 2.31275 -1.93283 10.7087
196 2 2.2208 2.39811 3.72403 10.8556
197 1 -1.1104 3.6784 -0.354523 12.2335
198 1 -1.1104 3.81699 -0.486592 9.47399
185 1 -1.1104 6.60949 -0.276512 12.1482
183 1 -1.1104 6.57603 2.39413 9.59222
182 1 -1.1104 6.65904 -3.29251 9.39943
179 1 -1.1104 6.65682 2.37018 12.3621
189 1 -1.1104 6.49663 -0.480903 9.4435
178 1 -1.1104 6.5528 -2.95923 12.3467
328 1 -1.1104 12.3766 13.7861 9.46026
321 1 -1.1104 9.46659 19.1181 12.0773
323 1 -1.1104 12.3933 16.4479 9.38234
529 2 2.2208 2.50001 17.8926 13.7873
206 1 -1.1104 12.1974 2.23772 6.80814
210 1 -1.1104 9.42334 -0.381709 6.649
208 1 -1.1104 9.46225 -3.24087 6.70137
205 1 -1.1104 12.1618 -3.16001 6.70838
169 1 -1.1104 6.75526 2.20474 6.64043
230 2 2.2208 13.6326 -1.78241 10.9358
211 2 2.2208 10.7525 1.03901 10.9527
212 1 -1.1104 12.0825 -2.98611 12.2862
213 1 -1.1104 12.4023 2.35068 12.3985
214 1 -1.1104 12.3018 -3.03676 9.45553
215 1 -1.1104 11.9826 2.4251 9.45947
216 1 -1.1104 12.2315 -0.283697 12.174
217 2 2.2208 10.7415 -1.69044 8.11419
218 2 2.2208 10.8277 3.8074 8.05226
219 1 -1.1104 12.1313 -0.258033 9.47178
220 1 -1.1104 9.24398 -2.9637 12.2308
221 1 -1.1104 9.55696 2.47001 12.2841
222 2 2.2208 7.86038 0.998581 8.07329
223 1 -1.1104 9.47889 -3.12372 9.38029
224 1 -1.1104 9.16401 2.42485 9.47456
225 2 2.2208 7.90676 -1.76532 10.7537
226 2 2.2208 8.07384 3.86626 10.8652
227 1 -1.1104 9.34587 -0.183061 12.441
228 1 -1.1104 9.12155 -0.371312 9.50448
29 2 2.2208 -0.28437 6.58552 10.7346
143 1 -1.1104 12.3842 13.6566 6.61543
314 1 -1.1104 9.54736 16.5293 9.51283
331 2 2.2208 10.9548 17.836 10.7172
325 2 2.2208 10.9581 15.063 7.90623
234 1 -1.1104 1.03558 8.06655 6.7759
238 1 -1.1104 4.03733 8.19823 6.41358
78 1 -1.1104 3.90736 10.8321 6.51252
237 1 -1.1104 6.68565 5.30171 6.69805
239 1 -1.1104 3.93104 5.55119 6.74531
62 1 -1.1104 1.03379 10.8226 6.75597
240 2 2.2208 5.25795 6.65814 10.7116
241 2 2.2208 5.26654 12.3109 10.7188
242 1 -1.1104 1.06816 8.14574 12.2675
244 1 -1.1104 1.10751 8.18955 9.48126
246 1 -1.1104 1.0749 5.3081 12.2359
247 1 -1.1104 1.18289 10.8566 12.175
250 2 2.2208 5.34686 9.59639 7.92844
251 1 -1.1104 1.10865 5.1805 9.25161
252 1 -1.1104 1.21205 11.0784 9.40935
255 1 -1.1104 3.80877 8.04741 12.2348
256 2 2.2208 2.39769 6.67204 8.05916
257 2 2.2208 2.50273 12.3134 8.03976
258 1 -1.1104 3.8019 8.0598 9.38398
259 2 2.2208 2.54597 9.47698 10.784
260 1 -1.1104 3.86131 5.20957 12.2809
261 1 -1.1104 4.05502 11.0257 12.1135
262 1 -1.1104 3.92306 5.34894 9.3747
263 1 -1.1104 4.00998 10.8559 9.34722
248 1 -1.1104 6.69349 5.25253 12.3308
254 1 -1.1104 6.7374 10.7701 9.37648
253 1 -1.1104 6.82956 5.20888 9.42758
243 1 -1.1104 6.65005 8.08432 12.0823
245 1 -1.1104 6.64 7.95764 9.23622
249 1 -1.1104 6.81443 10.9006 12.2343
266 1 -1.1104 12.2289 5.23414 6.83063
265 1 -1.1104 12.3169 8.09379 6.69713
269 1 -1.1104 9.47157 5.1189 6.52634
339 2 2.2208 7.91789 1.0081 13.7179
556 2 2.2208 10.6867 20.5562 13.5621
264 1 -1.1104 9.48703 10.8454 9.48542
268 1 -1.1104 9.60003 5.11951 9.54401
270 1 -1.1104 9.52979 10.7485 12.2126
271 1 -1.1104 9.50979 5.36066 12.3938
272 2 2.2208 8.08336 9.43436 10.8522
273 1 -1.1104 9.49106 8.10048 9.48304
274 2 2.2208 8.11052 12.3415 8.03144
275 2 2.2208 8.07593 6.63452 7.99802
276 2 2.2208 10.8831 6.49277 10.9394
277 2 2.2208 10.9177 12.304 10.8522
278 1 -1.1104 12.341 7.97978 12.2996
279 1 -1.1104 12.303 7.93 9.5665
280 1 -1.1104 12.0862 5.08876 12.4017
281 1 -1.1104 12.4068 10.7191 12.3983
282 2 2.2208 10.9151 9.39554 8.08726
283 1 -1.1104 12.3437 5.26588 9.57924
284 1 -1.1104 12.2715 10.8876 9.51035
285 1 -1.1104 9.47065 8.05377 12.2794
9422 2 2.2208 13.6139 -4.62712 13.692
320 2 2.2208 8.03846 17.8443 7.97102
124 1 -1.1104 3.83427 13.5335 6.5406
302 1 -1.1104 1.10142 19.2528 6.75861
288 1 -1.1104 6.64935 19.281 9.50899
296 1 -1.1104 6.71541 19.2816 12.3333
297 1 -1.1104 6.59231 13.5765 12.308
306 1 -1.1104 6.59253 16.5211 12.1506
289 1 -1.1104 6.64726 16.4315 9.32511
290 1 -1.1104 6.75199 13.6035 9.47645
286 1 -1.1104 3.91383 19.1791 12.2126
287 1 -1.1104 3.81268 13.8132 12.102
291 1 -1.1104 1.07161 19.3656 9.44961
292 1 -1.1104 1.09064 16.5909 9.34373
293 2 2.2208 5.1878 20.692 8.08238
294 1 -1.1104 1.00048 13.6889 9.29238
295 2 2.2208 5.31073 15.129 8.1273
298 1 -1.1104 1.10325 19.2005 12.2076
299 1 -1.1104 0.926392 13.6323 12.2619
300 2 2.2208 5.2769 17.8284 10.8761
301 1 -1.1104 3.92044 19.2208 9.40919
303 2 2.2208 2.57932 17.897 8.03333
304 1 -1.1104 3.86341 16.3209 9.54712
305 1 -1.1104 3.83889 13.7273 9.29206
307 1 -1.1104 1.10832 16.5045 12.2106
308 1 -1.1104 3.89268 16.6216 12.2365
309 2 2.2208 2.46994 20.5947 10.8763
310 2 2.2208 2.4129 15.081 10.8342
322 1 -1.1104 9.35158 13.6414 12.1348
232 2 2.2208 13.6524 9.54872 5.14516
317 2 2.2208 8.06601 15.0926 10.7381
315 1 -1.1104 9.40529 16.45 12.2259
324 2 2.2208 10.8746 20.549 7.89078
330 1 -1.1104 12.2855 13.5681 12.3179
163 1 -1.1104 9.38886 16.3835 6.66635
318 1 -1.1104 9.49914 19.2215 9.43561
316 2 2.2208 7.96167 20.5787 10.7598
329 1 -1.1104 12.3161 19.2665 12.1936
326 1 -1.1104 12.2412 16.4996 12.1756
137 2 2.2208 -0.317483 17.9953 5.23049
203 2 2.2208 13.6388 3.7656 10.9312
9058 2 2.2208 -0.285932 -4.61471 5.13657
26 2 2.2208 -0.328389 1.10014 5.25664
231 2 2.2208 13.5996 20.6857 5.2228
82 2 2.2208 -0.269199 9.40666 2.32477
135 2 2.2208 -0.262821 15.1366 2.39867
199 2 2.2208 -0.363037 3.86334 7.98144
53 2 2.2208 13.6023 12.2272 8.00487
468 2 2.2208 2.35397 12.3697 13.5617
336 2 2.2208 2.36291 0.967682 13.6357
9071 2 2.2208 10.7274 -4.54195 -0.288377
676 2 2.2208 10.7449 12.1109 -0.392678
615 2 2.2208 8.07354 20.6171 -0.306654
585 2 2.2208 13.5521 20.6247 -0.330031
614 2 2.2208 11.04 17.8439 -0.335048
704 2 2.2208 5.29486 17.8509 -0.344148
589 2 2.2208 -0.40214 9.3602 13.6027
352 2 2.2208 5.16849 6.60871 -0.411448
348 2 2.2208 7.96323 -1.76858 -0.283046
466 2 2.2208 2.54074 6.60087 13.6687
347 2 2.2208 10.7019 1.05841 -0.353661
349 2 2.2208 8.14741 3.96476 -0.360543
557 2 2.2208 10.8345 15.0639 13.5476
531 2 2.2208 5.25887 15.1176 13.4964
467 2 2.2208 5.29396 9.47443 13.6257
357 2 2.2208 5.12586 0.934864 16.4586
358 1 -1.1104 1.03319 -3.13153 17.9357
359 1 -1.1104 1.05732 2.37485 17.9492
362 1 -1.1104 1.13582 -3.23973 15.1821
364 1 -1.1104 1.08857 2.31447 15.1363
370 1 -1.1104 1.18111 -0.462683 17.7859
372 2 2.2208 5.1816 -1.97579 19.2931
373 2 2.2208 5.32699 3.80884 19.4542
374 1 -1.1104 0.972974 -0.4996 15.1843
378 1 -1.1104 3.9405 -3.228 17.853
379 1 -1.1104 3.87457 2.50017 17.8019
380 2 2.2208 2.56221 0.886412 19.3258
381 1 -1.1104 3.85918 -3.30231 15.076
383 1 -1.1104 3.78866 2.27311 15.1223
385 2 2.2208 2.37155 -1.88819 16.4386
386 2 2.2208 2.56741 3.70188 16.4508
387 1 -1.1104 3.81369 -0.414849 17.874
388 1 -1.1104 3.62185 -0.44116 14.9836
371 1 -1.1104 6.60365 -0.469579 17.8085
361 1 -1.1104 6.50101 2.30379 18.0152
368 1 -1.1104 6.58318 2.36122 15.1924
366 1 -1.1104 6.61849 -3.20912 15.171
376 1 -1.1104 6.55825 -0.536044 14.8414
360 1 -1.1104 6.77459 -3.26835 17.9686
365 1 -1.1104 1.11592 2.3281 20.6711
9075 2 2.2208 5.12713 -4.51609 27.7903
375 1 -1.1104 1.14338 -0.446972 20.6688
338 2 2.2208 5.247 3.82307 13.6373
9355 2 2.2208 13.6307 -4.56623 24.8945
621 1 -1.1104 12.3116 13.6366 23.6097
9358 2 2.2208 5.29972 -4.66675 22.0605
400 2 2.2208 10.7499 1.11028 16.4966
401 1 -1.1104 12.1768 -3.17316 17.8163
402 1 -1.1104 12.204 2.35934 17.9383
403 1 -1.1104 12.314 -3.13164 15.0582
405 1 -1.1104 12.2199 2.4276 15.1311
407 1 -1.1104 12.2279 -0.339937 17.7736
408 2 2.2208 10.7874 -1.81089 19.1355
409 2 2.2208 10.8057 3.84329 19.2891
410 1 -1.1104 12.1758 -0.299069 14.9536
412 1 -1.1104 9.47054 -3.20489 17.828
413 1 -1.1104 9.43048 2.44578 17.8646
414 2 2.2208 8.10424 0.964492 19.2729
415 1 -1.1104 9.3422 -3.15995 15.0974
417 1 -1.1104 9.26521 2.56487 15.2446
419 2 2.2208 7.99783 -1.83835 16.4962
420 2 2.2208 7.81176 3.80173 16.5649
421 1 -1.1104 9.41141 -0.414744 17.9086
422 1 -1.1104 9.41185 -0.302683 15.1859
9357 2 2.2208 2.47663 -4.62423 25.0313
418 1 -1.1104 9.45238 2.26066 20.568
9305 2 2.2208 10.7696 -4.65778 22.0906
428 2 2.2208 13.5567 -1.66014 16.3791
411 1 -1.1104 12.1851 -0.558056 20.6721
431 2 2.2208 13.7075 14.9797 22.1707
719 1 -1.1104 9.49892 13.6737 23.5223
9440 2 2.2208 8.07357 -4.56149 19.2417
714 1 -1.1104 9.56257 19.1492 26.3155
433 2 2.2208 5.26825 6.70895 16.5535
434 2 2.2208 5.23306 12.301 16.4972
435 1 -1.1104 0.958851 7.85297 17.7978
437 1 -1.1104 1.14009 7.89554 15.0584
441 1 -1.1104 1.17519 5.16013 17.837
442 1 -1.1104 1.21885 10.5888 17.8577
445 2 2.2208 5.53733 9.44614 19.1764
446 1 -1.1104 1.11181 5.12963 15.0264
448 1 -1.1104 0.995656 10.9429 14.7811
454 1 -1.1104 3.89459 8.25648 17.8571
455 2 2.2208 2.45607 6.59933 19.2064
456 2 2.2208 2.61902 12.0919 19.3687
457 1 -1.1104 3.86758 7.96404 15.0153
459 2 2.2208 2.50189 9.37247 16.3956
460 1 -1.1104 3.94838 5.34062 17.8862
461 1 -1.1104 3.93788 10.8619 17.8041
462 1 -1.1104 3.92038 5.24155 15.016
464 1 -1.1104 3.78811 10.6907 14.8528
439 1 -1.1104 6.75649 8.24642 14.8685
444 1 -1.1104 6.80304 11.0398 17.776
443 1 -1.1104 6.57756 5.35867 18.0404
436 1 -1.1104 6.73451 8.15308 17.8406
450 1 -1.1104 6.57368 5.41705 15.2006
451 1 -1.1104 6.59588 5.13765 20.7784
447 1 -1.1104 1.09249 5.15784 20.5924
458 1 -1.1104 3.81593 8.02673 20.5843
465 1 -1.1104 3.96511 10.7006 20.6769
530 2 2.2208 5.29243 20.6969 13.6963
674 2 2.2208 10.8288 20.52 24.8734
9077 2 2.2208 -0.43904 -4.62953 27.6758
452 1 -1.1104 6.75257 10.8547 15.1628
469 2 2.2208 10.9298 6.66862 16.5957
470 2 2.2208 10.9183 12.3161 16.4046
471 1 -1.1104 12.335 8.05807 17.8609
472 1 -1.1104 12.3535 8.16264 15.1105
474 1 -1.1104 12.195 5.08995 17.8627
475 1 -1.1104 12.4388 10.8787 17.8886
476 2 2.2208 10.9027 9.52709 19.3426
477 1 -1.1104 12.1993 5.39147 15.1433
479 1 -1.1104 12.2186 11.0298 15.0187
481 1 -1.1104 9.47898 8.04718 18.0016
482 2 2.2208 8.16705 6.61364 19.233
483 2 2.2208 8.0698 12.3356 19.2005
484 1 -1.1104 9.53123 8.06009 15.1716
486 2 2.2208 8.15063 9.46549 16.3888
487 1 -1.1104 9.38515 5.13723 17.8956
488 1 -1.1104 9.62026 10.9387 17.854
489 1 -1.1104 9.34968 5.31565 15.3107
491 1 -1.1104 9.43217 10.7861 15.0649
490 1 -1.1104 9.37765 5.12902 20.6539
620 2 2.2208 13.681 6.50315 19.2166
425 2 2.2208 -0.366596 17.8276 16.6158
652 1 -1.1104 12.1798 16.465 23.4807
9472 2 2.2208 10.7886 -4.60404 16.347
650 1 -1.1104 12.3971 19.2554 26.2356
616 2 2.2208 10.8394 17.7608 22.1071
496 2 2.2208 5.24876 17.901 16.5335
497 1 -1.1104 1.04254 13.4448 18.0447
498 1 -1.1104 1.15614 19.3071 17.9722
501 1 -1.1104 1.17672 13.7381 15.1276
503 1 -1.1104 1.02584 19.261 15.0253
509 1 -1.1104 1.07729 16.2668 17.8596
511 2 2.2208 5.21177 15.0534 19.1656
512 2 2.2208 5.3004 20.6809 19.3283
513 1 -1.1104 1.13063 16.5443 15.0731
517 1 -1.1104 3.91433 13.6868 17.7585
518 1 -1.1104 3.88791 19.2313 17.8332
519 2 2.2208 2.48574 17.8466 19.347
520 1 -1.1104 3.98652 13.5243 14.8532
522 1 -1.1104 3.83686 19.3716 15.0565
524 2 2.2208 2.62867 15.0552 16.457
525 2 2.2208 2.51647 20.6657 16.5712
526 1 -1.1104 3.87357 16.4432 17.7952
527 1 -1.1104 3.90014 16.4389 14.9933
500 1 -1.1104 6.63584 19.2923 17.8016
510 1 -1.1104 6.71481 16.6225 17.7473
499 1 -1.1104 6.88056 13.8365 18.0481
515 1 -1.1104 6.86193 16.4135 14.8839
507 1 -1.1104 6.75381 19.3463 14.9863
516 1 -1.1104 6.61002 16.5377 20.5599
505 1 -1.1104 6.64724 13.7057 15.2071
502 1 -1.1104 1.16363 13.6085 20.5812
506 1 -1.1104 6.50088 13.6416 20.7493
710 1 -1.1104 9.41119 16.3827 26.36
9304 2 2.2208 8.06328 -4.56189 24.9609
532 2 2.2208 10.8876 17.7766 16.5569
533 1 -1.1104 12.4341 13.7682 17.9036
534 1 -1.1104 12.3379 19.1392 17.7271
535 1 -1.1104 12.2772 13.8243 15.0735
537 1 -1.1104 12.5489 20.8963 14.7693
539 1 -1.1104 12.3688 16.4347 17.8434
540 2 2.2208 10.9592 14.9709 19.2832
541 2 2.2208 10.8342 20.6363 19.3593
542 1 -1.1104 12.3017 16.7887 14.8998
544 1 -1.1104 9.60334 13.7402 17.894
545 1 -1.1104 9.52549 19.2805 17.8705
546 2 2.2208 8.10715 17.8973 19.2917
547 1 -1.1104 9.57383 13.534 15.0237
549 1 -1.1104 9.71423 19.0852 14.9434
551 2 2.2208 8.0617 15.04 16.4934
552 2 2.2208 8.01981 20.6611 16.5099
553 1 -1.1104 9.45975 16.5889 17.9842
554 1 -1.1104 9.57226 16.3489 15.0398
538 1 -1.1104 12.2408 19.2736 20.5985
706 2 2.2208 -0.356593 15.0918 24.9815
654 2 2.2208 -0.323067 12.2726 22.0227
550 1 -1.1104 9.49506 19.2599 20.6628
548 1 -1.1104 9.55408 13.5826 20.6697
536 1 -1.1104 12.2733 13.4877 20.752
389 1 -1.1104 3.83015 -0.643508 20.7265
382 1 -1.1104 3.7579 -3.474 20.6631
367 1 -1.1104 6.52039 -3.31311 20.5776
595 2 2.2208 -0.330361 3.9022 24.7453
369 1 -1.1104 6.77814 2.23608 20.7055
384 1 -1.1104 3.90636 2.47827 20.7058
363 1 -1.1104 0.940646 -3.23512 20.6477
377 1 -1.1104 6.56494 -0.585126 20.7872
560 2 2.2208 5.24861 0.847626 21.9498
561 1 -1.1104 1.14298 -3.32935 23.4925
562 1 -1.1104 1.04493 2.54623 23.5469
565 1 -1.1104 1.03136 -3.24883 26.298
566 1 -1.1104 0.925113 2.42315 26.2401
569 1 -1.1104 1.04018 -0.348643 23.347
571 2 2.2208 5.28015 -1.84889 24.91
572 2 2.2208 5.30668 3.75843 24.8676
573 1 -1.1104 1.01782 -0.295407 26.3199
575 1 -1.1104 3.91094 -3.26309 23.3812
576 1 -1.1104 3.90974 2.34158 23.4128
577 2 2.2208 2.38082 1.01471 24.9108
578 1 -1.1104 3.87394 -3.13745 26.1741
579 1 -1.1104 3.85947 2.45367 26.2701
580 2 2.2208 2.38382 -1.99467 22.0903
581 2 2.2208 2.50197 3.71987 21.9662
582 1 -1.1104 3.70862 -0.28269 23.4064
583 1 -1.1104 3.87346 -0.413754 26.3199
570 1 -1.1104 6.61454 -0.411367 23.511
574 1 -1.1104 6.61006 -0.444371 26.4586
567 1 -1.1104 6.38137 -3.19033 26.368
563 1 -1.1104 6.85683 -3.1359 23.4225
568 1 -1.1104 6.75944 2.46382 26.3441
564 1 -1.1104 6.68646 2.42519 23.4591
655 2 2.2208 10.8296 15.0137 24.9564
717 2 2.2208 8.02443 17.7916 24.9204
427 2 2.2208 -0.230615 20.6826 19.2563
406 1 -1.1104 12.2514 2.46647 20.8323
423 1 -1.1104 9.38171 -0.602299 20.6447
404 1 -1.1104 12.1635 -3.22707 20.7734
494 2 2.2208 10.8057 9.29736 13.7104
416 1 -1.1104 9.3756 -3.27707 20.7753
596 2 2.2208 10.9507 1.06936 21.9841
597 1 -1.1104 12.3539 -3.16168 23.5895
598 1 -1.1104 12.3209 2.53951 23.4559
599 1 -1.1104 12.1881 -3.23554 26.4203
600 1 -1.1104 12.4391 2.39621 26.0555
601 1 -1.1104 12.331 -0.41648 23.4618
602 2 2.2208 10.9219 -1.80676 24.8946
603 2 2.2208 10.9196 3.86194 24.838
604 1 -1.1104 12.0705 -0.291071 26.0372
605 1 -1.1104 9.60066 -3.18523 23.7371
606 1 -1.1104 9.48812 2.38283 23.3273
607 2 2.2208 8.06727 1.08169 24.8983
608 1 -1.1104 9.3322 -3.11866 26.3804
609 1 -1.1104 9.62958 2.58627 26.2251
610 2 2.2208 8.19781 -1.74692 22.1235
611 2 2.2208 8.03483 3.79004 22.0501
612 1 -1.1104 9.49431 -0.286869 23.5554
613 1 -1.1104 9.39604 -0.315645 26.4125
617 2 2.2208 -0.259427 12.2487 16.492
703 2 2.2208 2.44599 20.6434 27.7662
9468 2 2.2208 5.22062 -4.6961 16.4943
711 1 -1.1104 9.40118 16.3987 23.5843
543 1 -1.1104 12.4412 16.3376 20.6907
715 1 -1.1104 9.39212 13.5705 26.3077
712 2 2.2208 8.07356 20.666 22.0193
438 1 -1.1104 0.998031 7.91215 20.5724
453 1 -1.1104 6.79107 10.8578 20.6599
449 1 -1.1104 1.14549 10.7603 20.7532
463 1 -1.1104 3.81838 5.27283 20.6481
625 2 2.2208 5.13912 6.57406 22.1005
626 2 2.2208 5.32455 12.1546 22.1249
627 1 -1.1104 0.903852 8.07718 23.4329
629 1 -1.1104 0.947427 7.84422 26.3098
631 1 -1.1104 1.10561 5.23771 23.456
632 1 -1.1104 1.15804 10.9316 23.4328
635 2 2.2208 5.14218 9.28058 24.8941
636 1 -1.1104 1.10897 5.239 26.3137
637 1 -1.1104 0.999291 10.7329 26.3663
640 1 -1.1104 3.80853 7.87769 23.5005
641 2 2.2208 2.35617 6.55023 24.8349
642 2 2.2208 2.49843 12.2515 24.8853
643 1 -1.1104 3.67366 8.0245 26.2893
644 2 2.2208 2.48316 9.40283 22.1076
645 1 -1.1104 3.90633 4.9968 23.5452
646 1 -1.1104 3.84822 10.7966 23.4461
647 1 -1.1104 3.88053 5.25546 26.3792
648 1 -1.1104 3.89353 10.766 26.1724
638 1 -1.1104 6.67343 5.29867 26.2966
628 1 -1.1104 6.61372 7.9299 23.3474
634 1 -1.1104 6.59864 10.6735 23.415
440 1 -1.1104 6.66613 7.94539 20.6328
639 1 -1.1104 6.54722 10.938 26.1184
633 1 -1.1104 6.6285 5.17444 23.4366
478 1 -1.1104 12.2529 5.2209 20.6183
480 1 -1.1104 12.4142 10.6837 20.6906
630 1 -1.1104 6.51566 8.07997 26.2267
473 1 -1.1104 12.2574 7.93784 20.7104
492 1 -1.1104 9.50685 10.7487 20.8524
485 1 -1.1104 9.53588 7.90423 20.7595
591 2 2.2208 -0.334575 9.43056 19.1589
344 2 2.2208 2.39412 -1.67664 27.7111
656 1 -1.1104 9.45221 10.8656 26.3135
657 1 -1.1104 9.5587 5.32235 26.2014
658 1 -1.1104 9.35298 10.7348 23.6571
659 1 -1.1104 9.55939 5.03563 23.4217
660 2 2.2208 8.07957 9.37522 22.1628
661 1 -1.1104 9.33919 8.03598 26.3965
662 2 2.2208 8.10638 12.2097 24.857
663 2 2.2208 8.02214 6.56131 24.8497
664 2 2.2208 10.8066 6.44133 22.0397
665 2 2.2208 10.7946 12.1772 22.1344
666 1 -1.1104 12.3398 8.09347 23.6122
667 1 -1.1104 12.349 7.88624 26.332
668 1 -1.1104 12.2692 5.33425 23.4341
669 1 -1.1104 12.1746 10.9091 23.3966
670 2 2.2208 10.9648 9.37513 24.841
671 1 -1.1104 12.3438 5.17478 26.3486
672 1 -1.1104 12.3102 10.738 26.2664
673 1 -1.1104 9.50319 7.93193 23.4381
345 2 2.2208 2.27721 3.71953 27.7807
718 1 -1.1104 9.43058 19.1312 23.5271
504 1 -1.1104 0.950085 19.2491 20.7072
508 1 -1.1104 6.558 19.311 20.7409
528 1 -1.1104 3.91676 16.4956 20.5581
523 1 -1.1104 3.67226 19.2833 20.5872
521 1 -1.1104 3.91321 13.7063 20.6227
514 1 -1.1104 1.04668 16.504 20.5792
690 1 -1.1104 6.71031 13.5441 23.4732
681 1 -1.1104 6.76909 13.6585 26.2895
698 1 -1.1104 6.73655 16.3711 23.4145
699 1 -1.1104 1.09402 16.4505 23.3823
697 1 -1.1104 3.82535 13.6452 26.2174
696 1 -1.1104 3.89166 16.3544 26.0301
702 2 2.2208 2.58906 15.0644 22.0905
701 2 2.2208 2.38679 20.5803 22.056
700 1 -1.1104 3.90897 16.5644 23.4696
680 1 -1.1104 3.89716 19.237 23.4623
682 1 -1.1104 3.92246 13.5852 23.559
684 1 -1.1104 1.00867 19.2323 26.2452
685 1 -1.1104 1.05879 16.4859 26.2688
686 1 -1.1104 1.02925 13.5895 26.1415
688 2 2.2208 5.33279 20.633 24.9897
689 2 2.2208 5.29156 14.9835 24.9331
691 1 -1.1104 1.06581 19.159 23.4354
692 1 -1.1104 1.02797 13.6656 23.389
693 2 2.2208 5.29102 17.8101 22.0225
694 1 -1.1104 3.7431 19.2015 26.2863
695 2 2.2208 2.47547 17.8395 24.812
687 1 -1.1104 6.78212 19.1874 23.5691
683 1 -1.1104 6.71459 16.4644 26.2993
716 1 -1.1104 6.76174 19.405 26.3052
350 2 2.2208 13.4842 -1.79253 27.6865
713 2 2.2208 8.05971 14.9764 22.0776
653 2 2.2208 -0.297061 9.40846 24.9155
624 1 -1.1104 12.2195 19.1707 23.4341
720 1 -1.1104 12.2659 16.3942 26.2835
649 1 -1.1104 12.2002 13.5601 26.2568
555 1 -1.1104 9.46837 16.3783 20.6813
432 2 2.2208 13.6313 17.8509 24.888
9471 2 2.2208 13.4776 -4.56818 19.306
398 2 2.2208 -0.315036 3.72575 19.1018
558 2 2.2208 8.10564 17.8222 13.605
394 2 2.2208 -0.259882 -1.7501 19.3198
9418 2 2.2208 -0.363366 -4.59815 21.8998
9429 2 2.2208 8.02568 -4.46342 13.7728
396 2 2.2208 -0.312629 20.6206 13.6373
354 2 2.2208 -0.2901 12.2468 27.7222
493 2 2.2208 8.07221 6.65154 13.7885
584 2 2.2208 13.5765 15.0335 27.6234
397 2 2.2208 13.6607 6.57241 13.823
342 2 2.2208 10.79 3.80223 13.829
495 2 2.2208 8.12369 12.2795 13.6898
651 2 2.2208 5.26535 12.2473 27.5972
341 2 2.2208 10.7767 -1.70266 13.7341
705 2 2.2208 2.48507 15.16 27.5947
592 2 2.2208 8.04906 14.9172 27.7007
707 2 2.2208 -0.341288 17.8673 27.6516
721 2 2.2208 5.08042 23.4994 5.26447
722 2 2.2208 5.112 29.1316 5.26557
723 1 -1.1104 1.09063 24.9657 1.04016
724 1 -1.1104 1.06178 24.9154 3.90983
725 1 -1.1104 1.00535 22.267 1.12863
726 1 -1.1104 1.07382 27.8219 0.867474
727 2 2.2208 5.2494 26.2862 2.47771
728 1 -1.1104 1.16401 22.16 3.93443
729 1 -1.1104 1.00529 27.6862 3.64693
730 1 -1.1104 3.68478 24.8115 1.09204
731 2 2.2208 2.30688 23.5796 2.48772
732 2 2.2208 2.39902 29.1889 2.3522
733 1 -1.1104 3.72591 24.9988 3.93572
734 2 2.2208 2.44425 26.2912 5.34793
735 1 -1.1104 3.79276 21.9851 1.15134
736 1 -1.1104 3.85542 27.4535 0.985669
737 1 -1.1104 3.79698 22.169 3.94113
738 1 -1.1104 3.79969 27.7256 3.83269
745 1 -1.1104 6.64319 27.6841 1.20296
743 1 -1.1104 6.60995 24.7575 3.73926
742 1 -1.1104 6.41549 24.9756 0.950138
744 1 -1.1104 6.72256 22.115 1.07415
746 1 -1.1104 6.53557 21.9948 3.89859
863 1 -1.1104 6.55757 24.8512 6.56468
747 1 -1.1104 6.67414 27.4943 3.81683
867 1 -1.1104 6.63591 27.6665 6.67747
870 1 -1.1104 3.93001 27.683 6.78884
862 1 -1.1104 1.11237 24.8589 6.76152
866 1 -1.1104 6.57938 22.0771 6.60564
869 1 -1.1104 3.79723 21.9915 6.82648
948 2 2.2208 -0.341706 37.4673 8.02445
868 1 -1.1104 3.90772 24.8909 6.59499
865 1 -1.1104 1.06669 27.6805 6.59123
1663 1 -1.1104 12.1476 47.5987 12.3456
814 2 2.2208 13.7445 34.7051 2.49324
748 2 2.2208 10.8612 23.5727 5.38428
749 2 2.2208 10.8662 29.1911 5.30858
750 1 -1.1104 12.2694 24.9476 1.09314
751 1 -1.1104 12.3829 24.9046 4.02206
752 1 -1.1104 12.3154 22.1304 1.10945
753 1 -1.1104 12.325 27.8186 1.09155
754 2 2.2208 10.7651 26.2963 2.48072
755 1 -1.1104 12.3305 22.0127 3.97177
756 1 -1.1104 12.1985 27.6647 4.07469
757 1 -1.1104 9.44201 25.028 1.00842
758 2 2.2208 8.02165 23.5669 2.45508
759 2 2.2208 8.02509 28.987 2.57646
760 1 -1.1104 9.44461 24.8706 3.85858
761 2 2.2208 7.90667 26.1869 5.38123
762 1 -1.1104 9.55768 22.3356 1.23389
763 1 -1.1104 9.5033 27.6842 1.0851
764 1 -1.1104 9.4143 22.1843 4.00813
765 1 -1.1104 9.47294 27.6905 3.72633
898 1 -1.1104 9.22829 24.792 6.63151
899 1 -1.1104 9.40655 22.0505 6.70619
896 1 -1.1104 12.1396 22.0882 6.71219
1289 2 2.2208 13.6985 26.4065 -0.292588
1041 2 2.2208 13.5665 37.5954 10.9811
1288 2 2.2208 8.04791 26.4291 -0.324517
895 1 -1.1104 12.2566 24.968 6.72426
768 2 2.2208 13.6131 26.2186 5.29409
1318 2 2.2208 2.346 31.9256 -0.263593
1426 1 -1.1104 0.82399 47.3416 1.12038
769 2 2.2208 5.3025 34.8039 5.18317
770 1 -1.1104 0.882434 30.5485 0.962565
771 1 -1.1104 1.02289 36.1318 1.04916
773 1 -1.1104 1.05845 30.6594 3.78533
774 1 -1.1104 0.971407 36.0742 3.93961
776 1 -1.1104 0.912142 33.2915 0.978982
777 2 2.2208 5.09916 31.9136 2.54469
778 2 2.2208 5.30794 37.4719 2.30434
779 1 -1.1104 0.923046 33.3895 3.85858
781 1 -1.1104 3.81002 30.4428 1.00827
782 1 -1.1104 3.76575 36.0266 1.0182
783 2 2.2208 2.36839 34.7353 2.47538
784 1 -1.1104 3.7275 30.4552 3.86552
785 1 -1.1104 3.75887 36.1666 3.81875
786 2 2.2208 2.38434 31.9524 5.28643
787 2 2.2208 2.50676 37.4989 5.19813
788 1 -1.1104 3.76036 33.2145 1.03662
789 1 -1.1104 3.67083 33.3496 3.77872
775 1 -1.1104 6.57593 36.0981 3.62243
793 1 -1.1104 6.66 30.4471 1.22145
794 1 -1.1104 6.62761 30.4063 3.92906
780 1 -1.1104 6.56391 33.3645 3.82487
772 1 -1.1104 6.73878 36.1311 0.995391
795 1 -1.1104 6.53293 33.3039 1.13595
1481 1 -1.1104 9.34202 47.4224 0.979064
921 1 -1.1104 3.75575 30.5771 6.63726
1259 2 2.2208 5.24337 23.4957 -0.351131
918 1 -1.1104 6.52892 36.0983 6.66353