LAMMPS (29 Oct 2020)
OMP_NUM_THREADS environment is not set. Defaulting to 1 thread. (../comm.cpp:94)
  using 1 OpenMP thread(s) per MPI task
OMP_NUM_THREADS environment is not set. Defaulting to 1 thread. (../comm.cpp:94)
  using 1 OpenMP thread(s) per MPI task
Reading data file ...
  orthogonal box = (-0.44294682 -5.5162823 -0.42779186) to (27.782947 333.59628 27.767792)
  2 by 13 by 2 MPI processor grid
  reading atoms ...
  17704 atoms
  reading velocities ...
  17704 velocities
Finding 1-2 1-3 1-4 neighbors ...
  special bond factors lj:    0.0      0.0      0.0     
  special bond factors coul:  0.0      0.0      0.0     
     0 = max # of 1-2 neighbors
     0 = max # of 1-3 neighbors
     0 = max # of 1-4 neighbors
     1 = max # of special neighbors
  special bonds CPU = 0.003 seconds
  read_data CPU = 0.062 seconds
WARNING: 13 of 1000 force values in table Xe-Xe are inconsistent with -dE/dr.
  Should only be flagged at inflection points (../pair_table.cpp:461)
WARNING: 2 of 1000 force values in table Xe-O are inconsistent with -dE/dr.
  Should only be flagged at inflection points (../pair_table.cpp:461)
WARNING: 2 of 1000 force values in table Xe-Th are inconsistent with -dE/dr.
  Should only be flagged at inflection points (../pair_table.cpp:461)
Setting atom values ...
  11760 settings made for charge
Setting atom values ...
  5880 settings made for charge
Setting atom values ...
  64 settings made for charge
PPPM initialization ...
  using 12-bit tables for long-range coulomb (../kspace.cpp:328)
  G vector (1/distance) = 0.29846518
  grid = 40 240 40
  stencil order = 5
  estimated absolute RMS force accuracy = 0.00015880442
  estimated relative force accuracy = 1.1028357e-05
  using single precision MKL FFT
  3d grid and FFT values/proc = 18225 7600
Neighbor list info ...
  update every 1 steps, delay 0 steps, check yes
  max neighbors/atom: 2000, page size: 100000
  master list distance cutoff = 13
  ghost atom cutoff = 13
  binsize = 6.5, bins = 5 53 5
  3 neighbor lists, perpetual/occasional/extra = 3 0 0
  (1) pair coul/long, perpetual
      attributes: half, newton on
      pair build: half/bin/newton
      stencil: half/bin/3d/newton
      bin: standard
  (2) pair eam/alloy, perpetual, skip from (1)
      attributes: half, newton on
      pair build: skip
      stencil: none
      bin: none
  (3) pair table, perpetual, skip from (1)
      attributes: half, newton on
      pair build: skip
      stencil: none
      bin: none
Setting up Verlet run ...
  Unit style    : metal
  Current step  : 0
  Time step     : 0.001
Per MPI rank memory allocation (min/avg/max) = 9.205 | 9.949 | 10.03 Mbytes
Step Temp E_pair E_mol TotEng Press 
       0         1200   -228922.24            0   -226176.29    210.92559 
   50000    1202.7969   -228918.69            0   -226166.34    1272.9146 
Loop time of 349.151 on 52 procs for 50000 steps with 17704 atoms

Performance: 12.373 ns/day, 1.940 hours/ns, 143.204 timesteps/s
99.8% CPU use with 52 MPI tasks x 1 OpenMP threads

MPI task timing breakdown:
Section |  min time  |  avg time  |  max time  |%varavg| %total
---------------------------------------------------------------
Pair    | 254.93     | 260.12     | 269.45     |  20.2 | 74.50
Bond    | 0.0036872  | 0.0064509  | 0.008919   |   1.4 |  0.00
Kspace  | 66.408     | 75.348     | 80.848     |  37.6 | 21.58
Neigh   | 3.3863     | 3.5935     | 3.8184     |   5.2 |  1.03
Comm    | 7.1218     | 7.6689     | 8.8376     |  16.2 |  2.20
Output  | 5.6908e-05 | 6.1949e-05 | 0.00027219 |   0.0 |  0.00
Modify  | 0.88695    | 1.7212     | 2.4793     |  44.3 |  0.49
Other   |            | 0.6929     |            |       |  0.20

Nlocal:        340.462 ave         366 max         324 min
Histogram: 6 3 9 10 11 5 4 1 1 2
Nghost:        5479.73 ave        5605 max        5380 min
Histogram: 4 4 9 17 2 2 2 0 7 5
Neighs:       104653.0 ave      114144 max       96069 min
Histogram: 2 2 9 5 8 13 6 3 2 2

Total # of neighbors = 5441951
Ave neighs/atom = 307.38539
Ave special neighs/atom = 0.0000000
Neighbor list builds = 1207
Dangerous builds = 0
11760 atoms in group oxygen
PPPM initialization ...
  using 12-bit tables for long-range coulomb (../kspace.cpp:328)
  G vector (1/distance) = 0.29846518
  grid = 40 240 40
  stencil order = 5
  estimated absolute RMS force accuracy = 0.00015880442
  estimated relative force accuracy = 1.1028357e-05
  using single precision MKL FFT
  3d grid and FFT values/proc = 18225 7600
Neighbor list info ...
  update every 1 steps, delay 0 steps, check yes
  max neighbors/atom: 2000, page size: 100000
  master list distance cutoff = 13
  ghost atom cutoff = 13
  binsize = 6.5, bins = 5 53 5
  3 neighbor lists, perpetual/occasional/extra = 3 0 0
  (1) pair coul/long, perpetual
      attributes: half, newton on
      pair build: half/bin/newton
      stencil: half/bin/3d/newton
      bin: standard
  (2) pair eam/alloy, perpetual, skip from (1)
      attributes: half, newton on
      pair build: skip
      stencil: none
      bin: none
  (3) pair table, perpetual, skip from (1)
      attributes: half, newton on
      pair build: skip
      stencil: none
      bin: none
Setting up Verlet run ...
  Unit style    : metal
  Current step  : 0
  Time step     : 0.001
Per MPI rank memory allocation (min/avg/max) = 9.456 | 10.20 | 10.28 Mbytes
Step f_2 Temp v_Tdiff v_deltaT 
       0            0    1202.7969            0            0 
  100000    1306.2987    1190.1506  0.051206198     594.4992 
  200000    2529.1391    1202.6641  0.061048953    708.77268 
  300000    3764.0942    1201.8827  0.058753258    682.11987 
  400000    4991.7852    1195.8444  0.058637756     680.7789 
  500000    6221.3556    1194.4807  0.060739662    705.18184 
  600000    7442.5565    1203.9576  0.061317053    711.88529 
  700000    8663.1336    1202.5724  0.059091319    686.04472 
  800000    9907.7547    1187.7789  0.058270062    676.51001 
  900000    11125.816    1208.4038  0.059824846    694.56091 
 1000000    12360.177    1200.9714  0.059062321    685.70806 
Loop time of 7004.97 on 52 procs for 1000000 steps with 17704 atoms

Performance: 12.334 ns/day, 1.946 hours/ns, 142.756 timesteps/s
99.8% CPU use with 52 MPI tasks x 1 OpenMP threads

MPI task timing breakdown:
Section |  min time  |  avg time  |  max time  |%varavg| %total
---------------------------------------------------------------
Pair    | 5122.1     | 5225.2     | 5405.1     |  82.9 | 74.59
Bond    | 0.088512   | 0.12807    | 0.19515    |   7.1 |  0.00
Kspace  | 1332.1     | 1502.4     | 1591.4     | 146.4 | 21.45
Neigh   | 77.731     | 82.763     | 88.187     |  27.6 |  1.18
Comm    | 139.74     | 154.41     | 176.74     |  73.6 |  2.20
Output  | 0.0010799  | 0.0011342  | 0.0023132  |   0.5 |  0.00
Modify  | 5.6308     | 6.1432     | 6.6985     |  12.5 |  0.09
Other   |            | 34.01      |            |       |  0.49

Nlocal:        340.462 ave         369 max         323 min
Histogram: 3 9 7 11 6 8 5 2 0 1
Nghost:        5494.54 ave        5613 max        5380 min
Histogram: 4 4 6 11 5 5 5 0 2 10
Neighs:       104684.0 ave      113864 max       95337 min
Histogram: 2 4 2 10 9 6 9 7 2 1

Total # of neighbors = 5443545
Ave neighs/atom = 307.47543
Ave special neighs/atom = 0.0000000
Neighbor list builds = 27642
Dangerous builds = 0
Total wall time: 2:02:34
